 vasp.5.4.1 24Jun15 (build Jun 25 2016 16:33:19) complex                        
  
 executed on           IFC91_ompi date 2016.07.02  14:45:27
 serial version


--------------------------------------------------------------------------------------------------------


 INCAR:
 POTCAR:   PAW_PBE V 08Apr2002                    
 POTCAR:   PAW_PBE N 08Apr2002                    
 POTCAR:   PAW_PBE V 08Apr2002                    
   VRHFIN =V: p6 d4 s1                                                          
   LEXCH  = PE                                                                  
   EATOM  =   170.8679 eV,   12.5584 Ry                                         
                                                                                
   TITEL  = PAW_PBE V 08Apr2002                                                 
   LULTRA =        F    use ultrasoft PP ?                                      
   IUNSCR =        1    unscreen: 0-lin 1-nonlin 2-no                           
   RPACOR =    2.000    partial core radius                                     
   POMASS =   50.941; ZVAL   =    5.000    mass and valenz                      
   RCORE  =    2.700    outmost cutoff radius                                   
   RWIGS  =    2.500; RWIGS  =    1.323    wigner-seitz radius (au A)           
   ENMAX  =  192.543; ENMIN  =  144.408 eV                                      
   RCLOC  =    1.779    cutoff for local pot                                    
   LCOR   =        T    correct aug charges                                     
   LPAW   =        T    paw PP                                                  
   EAUG   =  358.662                                                            
   DEXC   =    -.034                                                            
   RMAX   =    3.323    core radius for proj-oper                               
   RAUG   =    1.300    factor for augmentation sphere                          
   RDEP   =    2.762    radius for radial grids                                 
   QCUT   =   -3.762; QGAM   =    7.524    optimization parameters              
                                                                                
   Description                                                                  
     l     E      TYP  RCUT    TYP  RCUT                                        
     2   .000     23  2.700                                                     
     2   .000     23  2.700                                                     
     0   .000     23  2.700                                                     
     0  2.000     23  2.700                                                     
     1   .000     23  2.700                                                     
     1  2.000     23  2.700                                                     
     3   .000      7   .000                                                     
  local pseudopotential read in
  partial core-charges read in
  atomic valenz-charges read in
  non local Contribution for L=           2  read in
    real space projection operators read in
  non local Contribution for L=           2  read in
    real space projection operators read in
  non local Contribution for L=           0  read in
    real space projection operators read in
  non local Contribution for L=           0  read in
    real space projection operators read in
  non local Contribution for L=           1  read in
    real space projection operators read in
  non local Contribution for L=           1  read in
    real space projection operators read in
    PAW grid and wavefunctions read in
 
   number of l-projection  operators is LMAX  =           6
   number of lm-projection operators is LMMAX =          18
 
 POTCAR:   PAW_PBE N 08Apr2002                    
   VRHFIN =N: s2p3                                                              
   LEXCH  = PE                                                                  
   EATOM  =   264.5486 eV,   19.4438 Ry                                         
                                                                                
   TITEL  = PAW_PBE N 08Apr2002                                                 
   LULTRA =        F    use ultrasoft PP ?                                      
   IUNSCR =        0    unscreen: 0-lin 1-nonlin 2-no                           
   RPACOR =     .000    partial core radius                                     
   POMASS =   14.001; ZVAL   =    5.000    mass and valenz                      
   RCORE  =    1.500    outmost cutoff radius                                   
   RWIGS  =    1.400; RWIGS  =     .741    wigner-seitz radius (au A)           
   ENMAX  =  400.000; ENMIN  =  300.000 eV                                      
   ICORE  =        2    local potential                                         
   LCOR   =        T    correct aug charges                                     
   LPAW   =        T    paw PP                                                  
   EAUG   =  627.112                                                            
   DEXC   =     .000                                                            
   RMAX   =    2.247    core radius for proj-oper                               
   RAUG   =    1.300    factor for augmentation sphere                          
   RDEP   =    1.514    radius for radial grids                                 
   QCUT   =   -5.562; QGAM   =   11.124    optimization parameters              
                                                                                
   Description                                                                  
     l     E      TYP  RCUT    TYP  RCUT                                        
     0   .000     23  1.200                                                     
     0   .000     23  1.200                                                     
     1   .000     23  1.500                                                     
     1   .700     23  1.500                                                     
     2   .000      7  1.500                                                     
  local pseudopotential read in
  atomic valenz-charges read in
  non local Contribution for L=           0  read in
    real space projection operators read in
  non local Contribution for L=           0  read in
    real space projection operators read in
  non local Contribution for L=           1  read in
    real space projection operators read in
  non local Contribution for L=           1  read in
    real space projection operators read in
    PAW grid and wavefunctions read in
 
   number of l-projection  operators is LMAX  =           4
   number of lm-projection operators is LMMAX =           8
 

 ----------------------------------------------------------------------------- 
|                                                                             |
|  ADVICE TO THIS USER RUNNING 'VASP/VAMP'   (HEAR YOUR MASTER'S VOICE ...):  |
|                                                                             |
|      You enforced a specific xc-type in the INCAR file,                     |
|      a different type was found on the POTCAR file                          |
|          I HOPE YOU KNOW, WHAT YOU ARE  DOING                               |
|                                                                             |
 ----------------------------------------------------------------------------- 

 PAW_PBE V 08Apr2002                    :
 energy of atom  1       EATOM= -170.8679
 kinetic energy error for atom=    0.0003 (will be added to EATOM!!)
 PAW_PBE N 08Apr2002                    :
 energy of atom  2       EATOM= -264.5486
 kinetic energy error for atom=    0.0138 (will be added to EATOM!!)
 
 
 POSCAR: VN                                      
  positions in direct lattice
  No initial velocities read in
 exchange correlation table for  LEXCH =       13
   RHO(1)=    0.500       N(1)  =     2000
   RHO(2)=  100.500       N(2)  =     4000
 


--------------------------------------------------------------------------------------------------------


 ion  position               nearest neighbor table
   1  0.000  0.000  0.000-   2 2.04   2 2.04   2 2.04   2 2.04   2 2.04   2 2.04
   2  0.500  0.500  0.500-   1 2.04   1 2.04   1 2.04   1 2.04   1 2.04   1 2.04
 
  LATTYP: Found a face centered cubic cell.
 ALAT       =     4.0711530000
  
  Lattice vectors:
  
 A1 = (   0.0000000000,   2.0355765000,   2.0355765000)
 A2 = (   2.0355765000,   0.0000000000,   2.0355765000)
 A3 = (   2.0355765000,   2.0355765000,   0.0000000000)


Analysis of symmetry for initial positions (statically):
=====================================================================
 Subroutine PRICEL returns:
 Original cell was already a primitive cell.
 

 Routine SETGRP: Setting up the symmetry group for a 
 face centered cubic supercell.


 Subroutine GETGRP returns: Found 48 space group operations
 (whereof 48 operations were pure point group operations)
 out of a pool of 48 trial point group operations.


The static configuration has the point symmetry O_h .


Analysis of symmetry for dynamics (positions and initial velocities):
=====================================================================
 Subroutine PRICEL returns:
 Original cell was already a primitive cell.
 

 Routine SETGRP: Setting up the symmetry group for a 
 face centered cubic supercell.


 Subroutine GETGRP returns: Found 48 space group operations
 (whereof 48 operations were pure point group operations)
 out of a pool of 48 trial point group operations.


The dynamic configuration has the point symmetry O_h .


 Subroutine INISYM returns: Found 48 space group operations
 (whereof 48 operations are pure point group operations),
 and found     1 'primitive' translations

 
 
 KPOINTS: Automatic mesh                          

Automatic generation of k-mesh.
Space group operators:
 irot       det(A)        alpha          n_x          n_y          n_z        tau_x        tau_y        tau_z
    1     1.000000     0.000000     1.000000     0.000000     0.000000     0.000000     0.000000     0.000000
    2    -1.000000     0.000000     1.000000     0.000000     0.000000     0.000000     0.000000     0.000000
    3     1.000000   120.000000    -0.577350    -0.577350    -0.577350     0.000000     0.000000     0.000000
    4    -1.000000   120.000000    -0.577350    -0.577350    -0.577350     0.000000     0.000000     0.000000
    5     1.000000   120.000000     0.577350     0.577350     0.577350     0.000000     0.000000     0.000000
    6    -1.000000   120.000000     0.577350     0.577350     0.577350     0.000000     0.000000     0.000000
    7     1.000000    90.000000     0.000000     0.000000    -1.000000     0.000000     0.000000     0.000000
    8    -1.000000    90.000000     0.000000     0.000000    -1.000000     0.000000     0.000000     0.000000
    9     1.000000   180.000000     0.000000     0.707107     0.707107     0.000000     0.000000     0.000000
   10    -1.000000   180.000000     0.000000     0.707107     0.707107     0.000000     0.000000     0.000000
   11     1.000000    90.000000     0.000000     1.000000     0.000000     0.000000     0.000000     0.000000
   12    -1.000000    90.000000     0.000000     1.000000     0.000000     0.000000     0.000000     0.000000
   13     1.000000   180.000000     0.000000     0.000000     1.000000     0.000000     0.000000     0.000000
   14    -1.000000   180.000000     0.000000     0.000000     1.000000     0.000000     0.000000     0.000000
   15     1.000000   120.000000    -0.577350     0.577350     0.577350     0.000000     0.000000     0.000000
   16    -1.000000   120.000000    -0.577350     0.577350     0.577350     0.000000     0.000000     0.000000
   17     1.000000   120.000000    -0.577350     0.577350    -0.577350     0.000000     0.000000     0.000000
   18    -1.000000   120.000000    -0.577350     0.577350    -0.577350     0.000000     0.000000     0.000000
   19     1.000000    90.000000     0.000000     0.000000     1.000000     0.000000     0.000000     0.000000
   20    -1.000000    90.000000     0.000000     0.000000     1.000000     0.000000     0.000000     0.000000
   21     1.000000    90.000000    -1.000000     0.000000     0.000000     0.000000     0.000000     0.000000
   22    -1.000000    90.000000    -1.000000     0.000000     0.000000     0.000000     0.000000     0.000000
   23     1.000000   180.000000     0.707107     0.000000     0.707107     0.000000     0.000000     0.000000
   24    -1.000000   180.000000     0.707107     0.000000     0.707107     0.000000     0.000000     0.000000
   25     1.000000   120.000000     0.577350    -0.577350     0.577350     0.000000     0.000000     0.000000
   26    -1.000000   120.000000     0.577350    -0.577350     0.577350     0.000000     0.000000     0.000000
   27     1.000000   120.000000    -0.577350    -0.577350     0.577350     0.000000     0.000000     0.000000
   28    -1.000000   120.000000    -0.577350    -0.577350     0.577350     0.000000     0.000000     0.000000
   29     1.000000   180.000000     1.000000     0.000000     0.000000     0.000000     0.000000     0.000000
   30    -1.000000   180.000000     1.000000     0.000000     0.000000     0.000000     0.000000     0.000000
   31     1.000000    90.000000     0.000000    -1.000000     0.000000     0.000000     0.000000     0.000000
   32    -1.000000    90.000000     0.000000    -1.000000     0.000000     0.000000     0.000000     0.000000
   33     1.000000   180.000000     0.707107     0.707107     0.000000     0.000000     0.000000     0.000000
   34    -1.000000   180.000000     0.707107     0.707107     0.000000     0.000000     0.000000     0.000000
   35     1.000000    90.000000     1.000000     0.000000     0.000000     0.000000     0.000000     0.000000
   36    -1.000000    90.000000     1.000000     0.000000     0.000000     0.000000     0.000000     0.000000
   37     1.000000   120.000000     0.577350    -0.577350    -0.577350     0.000000     0.000000     0.000000
   38    -1.000000   120.000000     0.577350    -0.577350    -0.577350     0.000000     0.000000     0.000000
   39     1.000000   180.000000     0.000000     1.000000     0.000000     0.000000     0.000000     0.000000
   40    -1.000000   180.000000     0.000000     1.000000     0.000000     0.000000     0.000000     0.000000
   41     1.000000   120.000000     0.577350     0.577350    -0.577350     0.000000     0.000000     0.000000
   42    -1.000000   120.000000     0.577350     0.577350    -0.577350     0.000000     0.000000     0.000000
   43     1.000000   180.000000     0.000000    -0.707107     0.707107     0.000000     0.000000     0.000000
   44    -1.000000   180.000000     0.000000    -0.707107     0.707107     0.000000     0.000000     0.000000
   45     1.000000   180.000000     0.707107    -0.707107     0.000000     0.000000     0.000000     0.000000
   46    -1.000000   180.000000     0.707107    -0.707107     0.000000     0.000000     0.000000     0.000000
   47     1.000000   180.000000     0.707107     0.000000    -0.707107     0.000000     0.000000     0.000000
   48    -1.000000   180.000000     0.707107     0.000000    -0.707107     0.000000     0.000000     0.000000
 
 Subroutine IBZKPT returns following result:
 ===========================================
 
 Found    120 irreducible k-points:
 
 Following reciprocal coordinates:
            Coordinates               Weight
  0.000000  0.000000  0.000000      1.000000
  0.066667  0.000000  0.000000      8.000000
  0.133333  0.000000  0.000000      8.000000
  0.200000  0.000000  0.000000      8.000000
  0.266667  0.000000  0.000000      8.000000
  0.333333  0.000000  0.000000      8.000000
  0.400000  0.000000  0.000000      8.000000
  0.466667  0.000000  0.000000      8.000000
  0.066667  0.066667  0.000000      6.000000
  0.133333  0.066667  0.000000     24.000000
  0.200000  0.066667  0.000000     24.000000
  0.266667  0.066667  0.000000     24.000000
  0.333333  0.066667  0.000000     24.000000
  0.400000  0.066667  0.000000     24.000000
  0.466667  0.066667  0.000000     24.000000
 -0.466667  0.066667  0.000000     24.000000
 -0.400000  0.066667  0.000000     24.000000
 -0.333333  0.066667  0.000000     24.000000
 -0.266667  0.066667  0.000000     24.000000
 -0.200000  0.066667  0.000000     24.000000
 -0.133333  0.066667  0.000000     24.000000
 -0.066667  0.066667  0.000000     12.000000
  0.133333  0.133333  0.000000      6.000000
  0.200000  0.133333  0.000000     24.000000
  0.266667  0.133333  0.000000     24.000000
  0.333333  0.133333  0.000000     24.000000
  0.400000  0.133333  0.000000     24.000000
  0.466667  0.133333  0.000000     24.000000
 -0.466667  0.133333  0.000000     24.000000
 -0.400000  0.133333  0.000000     24.000000
 -0.333333  0.133333  0.000000     24.000000
 -0.266667  0.133333  0.000000     24.000000
 -0.200000  0.133333  0.000000     24.000000
 -0.133333  0.133333  0.000000     12.000000
  0.200000  0.200000  0.000000      6.000000
  0.266667  0.200000  0.000000     24.000000
  0.333333  0.200000  0.000000     24.000000
  0.400000  0.200000  0.000000     24.000000
  0.466667  0.200000  0.000000     24.000000
 -0.466667  0.200000  0.000000     24.000000
 -0.400000  0.200000  0.000000     24.000000
 -0.333333  0.200000  0.000000     24.000000
 -0.266667  0.200000  0.000000     24.000000
 -0.200000  0.200000  0.000000     12.000000
  0.266667  0.266667  0.000000      6.000000
  0.333333  0.266667  0.000000     24.000000
  0.400000  0.266667  0.000000     24.000000
  0.466667  0.266667  0.000000     24.000000
 -0.466667  0.266667  0.000000     24.000000
 -0.400000  0.266667  0.000000     24.000000
 -0.333333  0.266667  0.000000     24.000000
 -0.266667  0.266667  0.000000     12.000000
  0.333333  0.333333  0.000000      6.000000
  0.400000  0.333333  0.000000     24.000000
  0.466667  0.333333  0.000000     24.000000
 -0.466667  0.333333  0.000000     24.000000
 -0.400000  0.333333  0.000000     24.000000
 -0.333333  0.333333  0.000000     12.000000
  0.400000  0.400000  0.000000      6.000000
  0.466667  0.400000  0.000000     24.000000
 -0.466667  0.400000  0.000000     24.000000
 -0.400000  0.400000  0.000000     12.000000
  0.466667  0.466667  0.000000      6.000000
 -0.466667  0.466667  0.000000     12.000000
  0.200000  0.133333  0.066667     24.000000
  0.266667  0.133333  0.066667     48.000000
  0.333333  0.133333  0.066667     48.000000
  0.400000  0.133333  0.066667     48.000000
  0.466667  0.133333  0.066667     48.000000
 -0.466667  0.133333  0.066667     48.000000
  0.266667  0.200000  0.066667     24.000000
  0.333333  0.200000  0.066667     48.000000
  0.400000  0.200000  0.066667     48.000000
  0.466667  0.200000  0.066667     48.000000
 -0.466667  0.200000  0.066667     48.000000
 -0.400000  0.200000  0.066667     48.000000
 -0.333333  0.200000  0.066667     48.000000
 -0.266667  0.200000  0.066667     48.000000
 -0.200000  0.200000  0.066667     48.000000
 -0.133333  0.200000  0.066667     24.000000
  0.333333  0.266667  0.066667     24.000000
  0.400000  0.266667  0.066667     48.000000
  0.466667  0.266667  0.066667     48.000000
 -0.466667  0.266667  0.066667     48.000000
 -0.400000  0.266667  0.066667     48.000000
 -0.333333  0.266667  0.066667     48.000000
 -0.266667  0.266667  0.066667     48.000000
 -0.200000  0.266667  0.066667     24.000000
  0.400000  0.333333  0.066667     24.000000
  0.466667  0.333333  0.066667     48.000000
 -0.466667  0.333333  0.066667     48.000000
 -0.400000  0.333333  0.066667     48.000000
 -0.333333  0.333333  0.066667     48.000000
 -0.266667  0.333333  0.066667     24.000000
  0.466667  0.400000  0.066667     24.000000
 -0.466667  0.400000  0.066667     48.000000
 -0.400000  0.400000  0.066667     48.000000
 -0.333333  0.400000  0.066667     24.000000
 -0.466667  0.466667  0.066667     24.000000
 -0.400000  0.466667  0.066667     24.000000
  0.400000  0.266667  0.133333     24.000000
  0.466667  0.266667  0.133333     48.000000
 -0.466667  0.266667  0.133333     48.000000
 -0.400000  0.266667  0.133333     48.000000
  0.466667  0.333333  0.133333     24.000000
 -0.466667  0.333333  0.133333     48.000000
 -0.400000  0.333333  0.133333     48.000000
 -0.333333  0.333333  0.133333     48.000000
 -0.266667  0.333333  0.133333     48.000000
 -0.200000  0.333333  0.133333     24.000000
 -0.466667  0.400000  0.133333     24.000000
 -0.400000  0.400000  0.133333     48.000000
 -0.333333  0.400000  0.133333     48.000000
 -0.266667  0.400000  0.133333     24.000000
 -0.400000  0.466667  0.133333     24.000000
 -0.333333  0.466667  0.133333     24.000000
 -0.400000  0.400000  0.200000     24.000000
 -0.333333  0.400000  0.200000     48.000000
 -0.333333  0.466667  0.200000     24.000000
 -0.266667  0.466667  0.200000     24.000000
 
 Following cartesian coordinates:
            Coordinates               Weight
  0.000000  0.000000  0.000000      1.000000
 -0.066667  0.066667  0.066667      8.000000
 -0.133333  0.133333  0.133333      8.000000
 -0.200000  0.200000  0.200000      8.000000
 -0.266667  0.266667  0.266667      8.000000
 -0.333333  0.333333  0.333333      8.000000
 -0.400000  0.400000  0.400000      8.000000
 -0.466667  0.466667  0.466667      8.000000
  0.000000  0.000000  0.133333      6.000000
 -0.066667  0.066667  0.200000     24.000000
 -0.133333  0.133333  0.266667     24.000000
 -0.200000  0.200000  0.333333     24.000000
 -0.266667  0.266667  0.400000     24.000000
 -0.333333  0.333333  0.466667     24.000000
 -0.400000  0.400000  0.533333     24.000000
  0.533333 -0.533333 -0.400000     24.000000
  0.466667 -0.466667 -0.333333     24.000000
  0.400000 -0.400000 -0.266667     24.000000
  0.333333 -0.333333 -0.200000     24.000000
  0.266667 -0.266667 -0.133333     24.000000
  0.200000 -0.200000 -0.066667     24.000000
  0.133333 -0.133333  0.000000     12.000000
  0.000000  0.000000  0.266667      6.000000
 -0.066667  0.066667  0.333333     24.000000
 -0.133333  0.133333  0.400000     24.000000
 -0.200000  0.200000  0.466667     24.000000
 -0.266667  0.266667  0.533333     24.000000
 -0.333333  0.333333  0.600000     24.000000
  0.600000 -0.600000 -0.333333     24.000000
  0.533333 -0.533333 -0.266667     24.000000
  0.466667 -0.466667 -0.200000     24.000000
  0.400000 -0.400000 -0.133333     24.000000
  0.333333 -0.333333 -0.066667     24.000000
  0.266667 -0.266667  0.000000     12.000000
  0.000000  0.000000  0.400000      6.000000
 -0.066667  0.066667  0.466667     24.000000
 -0.133333  0.133333  0.533333     24.000000
 -0.200000  0.200000  0.600000     24.000000
 -0.266667  0.266667  0.666667     24.000000
  0.666667 -0.666667 -0.266667     24.000000
  0.600000 -0.600000 -0.200000     24.000000
  0.533333 -0.533333 -0.133333     24.000000
  0.466667 -0.466667 -0.066667     24.000000
  0.400000 -0.400000  0.000000     12.000000
  0.000000  0.000000  0.533333      6.000000
 -0.066667  0.066667  0.600000     24.000000
 -0.133333  0.133333  0.666667     24.000000
 -0.200000  0.200000  0.733333     24.000000
  0.733333 -0.733333 -0.200000     24.000000
  0.666667 -0.666667 -0.133333     24.000000
  0.600000 -0.600000 -0.066667     24.000000
  0.533333 -0.533333  0.000000     12.000000
  0.000000  0.000000  0.666667      6.000000
 -0.066667  0.066667  0.733333     24.000000
 -0.133333  0.133333  0.800000     24.000000
  0.800000 -0.800000 -0.133333     24.000000
  0.733333 -0.733333 -0.066667     24.000000
  0.666667 -0.666667  0.000000     12.000000
  0.000000  0.000000  0.800000      6.000000
 -0.066667  0.066667  0.866667     24.000000
  0.866667 -0.866667 -0.066667     24.000000
  0.800000 -0.800000  0.000000     12.000000
  0.000000  0.000000  0.933333      6.000000
  0.933333 -0.933333  0.000000     12.000000
 -0.000000  0.133333  0.266667     24.000000
 -0.066667  0.200000  0.333333     48.000000
 -0.133333  0.266667  0.400000     48.000000
 -0.200000  0.333333  0.466667     48.000000
 -0.266667  0.400000  0.533333     48.000000
  0.666667 -0.533333 -0.400000     48.000000
 -0.000000  0.133333  0.400000     24.000000
 -0.066667  0.200000  0.466667     48.000000
 -0.133333  0.266667  0.533333     48.000000
 -0.200000  0.333333  0.600000     48.000000
  0.733333 -0.600000 -0.333333     48.000000
  0.666667 -0.533333 -0.266667     48.000000
  0.600000 -0.466667 -0.200000     48.000000
  0.533333 -0.400000 -0.133333     48.000000
  0.466667 -0.333333 -0.066667     48.000000
  0.400000 -0.266667  0.000000     24.000000
  0.000000  0.133333  0.533333     24.000000
 -0.066667  0.200000  0.600000     48.000000
 -0.133333  0.266667  0.666667     48.000000
  0.800000 -0.666667 -0.266667     48.000000
  0.733333 -0.600000 -0.200000     48.000000
  0.666667 -0.533333 -0.133333     48.000000
  0.600000 -0.466667 -0.066667     48.000000
  0.533333 -0.400000  0.000000     24.000000
 -0.000000  0.133333  0.666667     24.000000
 -0.066667  0.200000  0.733333     48.000000
  0.866667 -0.733333 -0.200000     48.000000
  0.800000 -0.666667 -0.133333     48.000000
  0.733333 -0.600000 -0.066667     48.000000
  0.666667 -0.533333 -0.000000     24.000000
  0.000000  0.133333  0.800000     24.000000
  0.933333 -0.800000 -0.133333     48.000000
  0.866667 -0.733333 -0.066667     48.000000
  0.800000 -0.666667  0.000000     24.000000
  1.000000 -0.866667 -0.066667     24.000000
  0.933333 -0.800000  0.000000     24.000000
  0.000000  0.266667  0.533333     24.000000
 -0.066667  0.333333  0.600000     48.000000
  0.866667 -0.600000 -0.333333     48.000000
  0.800000 -0.533333 -0.266667     48.000000
 -0.000000  0.266667  0.666667     24.000000
  0.933333 -0.666667 -0.266667     48.000000
  0.866667 -0.600000 -0.200000     48.000000
  0.800000 -0.533333 -0.133333     48.000000
  0.733333 -0.466667 -0.066667     48.000000
  0.666667 -0.400000 -0.000000     24.000000
  1.000000 -0.733333 -0.200000     24.000000
  0.933333 -0.666667 -0.133333     48.000000
  0.866667 -0.600000 -0.066667     48.000000
  0.800000 -0.533333  0.000000     24.000000
  1.000000 -0.733333 -0.066667     24.000000
  0.933333 -0.666667  0.000000     24.000000
  1.000000 -0.600000 -0.200000     24.000000
  0.933333 -0.533333 -0.133333     48.000000
  1.000000 -0.600000 -0.066667     24.000000
  0.933333 -0.533333  0.000000     24.000000
 
 TETIRR: Found    484 inequivalent tetrahedra from    20250


--------------------------------------------------------------------------------------------------------




 Dimension of arrays:
   k-points           NKPTS =    120   k-points in BZ     NKDIM =    120   number of bands    NBANDS=     20
   number of dos      NEDOS =    301   number of ions     NIONS =      2
   non local maximal  LDIM  =      6   non local SUM 2l+1 LMDIM =     18
   total plane-waves  NPLWV =  13824
   max r-space proj   IRMAX =      1   max aug-charges    IRDMAX=  49891
   dimension x,y,z NGX =    24 NGY =   24 NGZ =   24
   dimension x,y,z NGXF=    48 NGYF=   48 NGZF=   48
   support grid    NGXF=    48 NGYF=   48 NGZF=   48
   ions per type =               1   1
 NGX,Y,Z   is equivalent  to a cutoff of  13.86, 13.86, 13.86 a.u.
 NGXF,Y,Z  is equivalent  to a cutoff of  27.72, 27.72, 27.72 a.u.


 I would recommend the setting:
   dimension x,y,z NGX =    21 NGY =   21 NGZ =   21
 SYSTEM =  unknown system                          
 POSCAR =  VN                                      

 Startparameter for this run:
   NWRITE =      2    write-flag & timer
   PREC   = accura    normal or accurate (medium, high low for compatibility)
   ISTART =      0    job   : 0-new  1-cont  2-samecut
   ICHARG =      2    charge: 1-file 2-atom 10-const
   ISPIN  =      1    spin polarized calculation?
   LNONCOLLINEAR =      F non collinear calculations
   LSORBIT =      F    spin-orbit coupling
   INIWAV =      1    electr: 0-lowe 1-rand  2-diag
   LASPH  =      F    aspherical Exc in radial PAW
   METAGGA=      F    non-selfconsistent MetaGGA calc.

 Electronic Relaxation 1
   ENCUT  =  500.0 eV  36.75 Ry    6.06 a.u.   5.25  5.25  5.25*2*pi/ulx,y,z
   ENINI  =  500.0     initial cutoff
   ENAUG  =  627.1 eV  augmentation charge cutoff
   NELM   =     60;   NELMIN=  2; NELMDL= -5     # of ELM steps 
   EDIFF  = 0.1E-05   stopping-criterion for ELM
   LREAL  =      F    real-space projection
   NLSPLINE    = F    spline interpolate recip. space projectors
   LCOMPAT=      F    compatible to vasp.4.4
   GGA_COMPAT  = T    GGA compatible to vasp.4.4-vasp.4.6
   LMAXPAW     = -100 max onsite density
   LMAXMIX     =    2 max onsite mixed and CHGCAR
   VOSKOWN=      0    Vosko Wilk Nusair interpolation
   ROPT   =    0.00000   0.00000
 Ionic relaxation
   EDIFFG = 0.1E-05   stopping-criterion for IOM
   NSW    =    200    number of steps for IOM
   NBLOCK =      1;   KBLOCK =    200    inner block; outer block 
   IBRION =      2    ionic relax: 0-MD 1-quasi-New 2-CG
   NFREE  =      1    steps in history (QN), initial steepest desc. (CG)
   ISIF   =      4    stress and relaxation
   IWAVPR =     11    prediction:  0-non 1-charg 2-wave 3-comb
   ISYM   =      2    0-nonsym 1-usesym 2-fastsym
   LCORR  =      T    Harris-Foulkes like correction to forces

   POTIM  = 0.2000    time-step for ionic-motion
   TEIN   =    0.0    initial temperature
   TEBEG  =    0.0;   TEEND  =   0.0 temperature during run
   SMASS  =  -3.00    Nose mass-parameter (am)
   estimated Nose-frequenzy (Omega)   =  0.10E-29 period in steps =****** mass=  -0.189E-27a.u.
   SCALEE = 1.0000    scale energy and forces
   NPACO  =    256;   APACO  = 16.0  distance and # of slots for P.C.
   PSTRESS=    0.0 pullay stress

  Mass of Ions in am
   POMASS =  50.94 14.00
  Ionic Valenz
   ZVAL   =   5.00  5.00
  Atomic Wigner-Seitz radii
   RWIGS  =  -1.00 -1.00
  virtual crystal weights 
   VCA    =   1.00  1.00
   NELECT =      10.0000    total number of electrons
   NUPDOWN=      -1.0000    fix difference up-down

 DOS related values:
   EMIN   = -20.00;   EMAX   = 20.00  energy-range for DOS
   EFERMI =   0.00
   ISMEAR =    -5;   SIGMA  =   0.20  broadening in eV -4-tet -1-fermi 0-gaus

 Electronic relaxation 2 (details)
   IALGO  =     38    algorithm
   LDIAG  =      T    sub-space diagonalisation (order eigenvalues)
   LSUBROT=      F    optimize rotation matrix (better conditioning)
   TURBO    =      0    0=normal 1=particle mesh
   IRESTART =      0    0=no restart 2=restart with 2 vectors
   NREBOOT  =      0    no. of reboots
   NMIN     =      0    reboot dimension
   EREF     =   0.00    reference energy to select bands
   IMIX   =      4    mixing-type and parameters
     AMIX     =   0.40;   BMIX     =  1.00
     AMIX_MAG =   1.60;   BMIX_MAG =  1.00
     AMIN     =   0.10
     WC   =   100.;   INIMIX=   1;  MIXPRE=   1;  MAXMIX= -45

 Intra band minimization:
   WEIMIN = 0.0010     energy-eigenvalue tresh-hold
   EBREAK =  0.13E-08  absolut break condition
   DEPER  =   0.30     relativ break condition  

   TIME   =   0.40     timestep for ELM

  volume/ion in A,a.u.               =       8.43        56.92
  Fermi-wavevector in a.u.,A,eV,Ry     =   1.375237  2.598820 25.732366  1.891276
  Thomas-Fermi vector in A             =   2.500591
 
 Write flags
   LWAVE  =      T    write WAVECAR
   LCHARG =      T    write CHGCAR
   LVTOT  =      F    write LOCPOT, total local potential
   LVHAR  =      F    write LOCPOT, Hartree potential only
   LELF   =      F    write electronic localiz. function (ELF)
   LORBIT =      0    0 simple, 1 ext, 2 COOP (PROOUT)


 Dipole corrections
   LMONO  =      F    monopole corrections only (constant potential shift)
   LDIPOL =      F    correct potential (dipole corrections)
   IDIPOL =      0    1-x, 2-y, 3-z, 4-all directions 
   EPSILON=  1.0000000 bulk dielectric constant

 Exchange correlation treatment:
   GGA     =    AM    GGA type
   LEXCH   =    13    internal setting for exchange type
   VOSKOWN=      0    Vosko Wilk Nusair interpolation
   LHFCALC =     F    Hartree Fock is set to
   LHFONE  =     F    Hartree Fock one center treatment
   AEXX    =    0.0000 exact exchange contribution

 Linear response parameters
   LEPSILON=     F    determine dielectric tensor
   LRPA    =     F    only Hartree local field effects (RPA)
   LNABLA  =     F    use nabla operator in PAW spheres
   LVEL    =     F    velocity operator in full k-point grid
   LINTERFAST=   F  fast interpolation
   KINTER  =     0    interpolate to denser k-point grid
   CSHIFT  =0.1000    complex shift for real part using Kramers Kronig
   OMEGAMAX=  -1.0    maximum frequency
   DEG_THRESHOLD= 0.2000000E-02 threshold for treating states as degnerate
   RTIME   =    0.100 relaxation time in fs

 Orbital magnetization related:
   ORBITALMAG=     F  switch on orbital magnetization
   LCHIMAG   =     F  perturbation theory with respect to B field
   DQ        =  0.001000  dq finite difference perturbation B field



--------------------------------------------------------------------------------------------------------


 conjugate gradient relaxation of ions
 charge density and potential will be updated during run
 non-spin polarized calculation
 Variant of blocked Davidson
 Davidson routine will perform the subspace rotation
 perform sub-space diagonalisation
    after iterative eigenvector-optimisation
 modified Broyden-mixing scheme, WC =      100.0
 initial mixing is a Kerker type mixing with AMIX =  0.4000 and BMIX =      1.0000
 Hartree-type preconditioning will be used
 using additional bands           15
 reciprocal scheme for non local part
 use partial core corrections
 calculate Harris-corrections to forces 
   (improved forces if not selfconsistent)
 use gradient corrections 
 use of overlap-Matrix (Vanderbilt PP)
 Fermi weights with tetrahedron method with Bloechl corrections


--------------------------------------------------------------------------------------------------------


  energy-cutoff  :      500.00
  volume of cell :       16.87
      direct lattice vectors                 reciprocal lattice vectors
     0.000000000  2.035576500  2.035576500    -0.245630660  0.245630660  0.245630660
     2.035576500  0.000000000  2.035576500     0.245630660 -0.245630660  0.245630660
     2.035576500  2.035576500  0.000000000     0.245630660  0.245630660 -0.245630660

  length of vectors
     2.878739894  2.878739894  2.878739894     0.425444784  0.425444784  0.425444784


 
 k-points in units of 2pi/SCALE and weight: Automatic mesh                          
   0.00000000  0.00000000  0.00000000       0.000
  -0.06666667  0.06666667  0.06666667       0.002
  -0.13333333  0.13333333  0.13333333       0.002
  -0.20000000  0.20000000  0.20000000       0.002
  -0.26666667  0.26666667  0.26666667       0.002
  -0.33333333  0.33333333  0.33333333       0.002
  -0.40000000  0.40000000  0.40000000       0.002
  -0.46666667  0.46666667  0.46666667       0.002
   0.00000000  0.00000000  0.13333333       0.002
  -0.06666667  0.06666667  0.20000000       0.007
  -0.13333333  0.13333333  0.26666667       0.007
  -0.20000000  0.20000000  0.33333333       0.007
  -0.26666667  0.26666667  0.40000000       0.007
  -0.33333333  0.33333333  0.46666667       0.007
  -0.40000000  0.40000000  0.53333333       0.007
   0.53333333 -0.53333333 -0.40000000       0.007
   0.46666667 -0.46666667 -0.33333333       0.007
   0.40000000 -0.40000000 -0.26666667       0.007
   0.33333333 -0.33333333 -0.20000000       0.007
   0.26666667 -0.26666667 -0.13333333       0.007
   0.20000000 -0.20000000 -0.06666667       0.007
   0.13333333 -0.13333333  0.00000000       0.004
   0.00000000  0.00000000  0.26666667       0.002
  -0.06666667  0.06666667  0.33333333       0.007
  -0.13333333  0.13333333  0.40000000       0.007
  -0.20000000  0.20000000  0.46666667       0.007
  -0.26666667  0.26666667  0.53333333       0.007
  -0.33333333  0.33333333  0.60000000       0.007
   0.60000000 -0.60000000 -0.33333333       0.007
   0.53333333 -0.53333333 -0.26666667       0.007
   0.46666667 -0.46666667 -0.20000000       0.007
   0.40000000 -0.40000000 -0.13333333       0.007
   0.33333333 -0.33333333 -0.06666667       0.007
   0.26666667 -0.26666667  0.00000000       0.004
   0.00000000  0.00000000  0.40000000       0.002
  -0.06666667  0.06666667  0.46666667       0.007
  -0.13333333  0.13333333  0.53333333       0.007
  -0.20000000  0.20000000  0.60000000       0.007
  -0.26666667  0.26666667  0.66666667       0.007
   0.66666667 -0.66666667 -0.26666667       0.007
   0.60000000 -0.60000000 -0.20000000       0.007
   0.53333333 -0.53333333 -0.13333333       0.007
   0.46666667 -0.46666667 -0.06666667       0.007
   0.40000000 -0.40000000  0.00000000       0.004
   0.00000000  0.00000000  0.53333333       0.002
  -0.06666667  0.06666667  0.60000000       0.007
  -0.13333333  0.13333333  0.66666667       0.007
  -0.20000000  0.20000000  0.73333333       0.007
   0.73333333 -0.73333333 -0.20000000       0.007
   0.66666667 -0.66666667 -0.13333333       0.007
   0.60000000 -0.60000000 -0.06666667       0.007
   0.53333333 -0.53333333  0.00000000       0.004
   0.00000000  0.00000000  0.66666667       0.002
  -0.06666667  0.06666667  0.73333333       0.007
  -0.13333333  0.13333333  0.80000000       0.007
   0.80000000 -0.80000000 -0.13333333       0.007
   0.73333333 -0.73333333 -0.06666667       0.007
   0.66666667 -0.66666667  0.00000000       0.004
   0.00000000  0.00000000  0.80000000       0.002
  -0.06666667  0.06666667  0.86666667       0.007
   0.86666667 -0.86666667 -0.06666667       0.007
   0.80000000 -0.80000000  0.00000000       0.004
   0.00000000  0.00000000  0.93333333       0.002
   0.93333333 -0.93333333  0.00000000       0.004
  -0.00000000  0.13333333  0.26666667       0.007
  -0.06666667  0.20000000  0.33333333       0.014
  -0.13333333  0.26666667  0.40000000       0.014
  -0.20000000  0.33333333  0.46666667       0.014
  -0.26666667  0.40000000  0.53333333       0.014
   0.66666667 -0.53333333 -0.40000000       0.014
  -0.00000000  0.13333333  0.40000000       0.007
  -0.06666667  0.20000000  0.46666667       0.014
  -0.13333333  0.26666667  0.53333333       0.014
  -0.20000000  0.33333333  0.60000000       0.014
   0.73333333 -0.60000000 -0.33333333       0.014
   0.66666667 -0.53333333 -0.26666667       0.014
   0.60000000 -0.46666667 -0.20000000       0.014
   0.53333333 -0.40000000 -0.13333333       0.014
   0.46666667 -0.33333333 -0.06666667       0.014
   0.40000000 -0.26666667  0.00000000       0.007
   0.00000000  0.13333333  0.53333333       0.007
  -0.06666667  0.20000000  0.60000000       0.014
  -0.13333333  0.26666667  0.66666667       0.014
   0.80000000 -0.66666667 -0.26666667       0.014
   0.73333333 -0.60000000 -0.20000000       0.014
   0.66666667 -0.53333333 -0.13333333       0.014
   0.60000000 -0.46666667 -0.06666667       0.014
   0.53333333 -0.40000000  0.00000000       0.007
  -0.00000000  0.13333333  0.66666667       0.007
  -0.06666667  0.20000000  0.73333333       0.014
   0.86666667 -0.73333333 -0.20000000       0.014
   0.80000000 -0.66666667 -0.13333333       0.014
   0.73333333 -0.60000000 -0.06666667       0.014
   0.66666667 -0.53333333 -0.00000000       0.007
   0.00000000  0.13333333  0.80000000       0.007
   0.93333333 -0.80000000 -0.13333333       0.014
   0.86666667 -0.73333333 -0.06666667       0.014
   0.80000000 -0.66666667  0.00000000       0.007
   1.00000000 -0.86666667 -0.06666667       0.007
   0.93333333 -0.80000000  0.00000000       0.007
   0.00000000  0.26666667  0.53333333       0.007
  -0.06666667  0.33333333  0.60000000       0.014
   0.86666667 -0.60000000 -0.33333333       0.014
   0.80000000 -0.53333333 -0.26666667       0.014
  -0.00000000  0.26666667  0.66666667       0.007
   0.93333333 -0.66666667 -0.26666667       0.014
   0.86666667 -0.60000000 -0.20000000       0.014
   0.80000000 -0.53333333 -0.13333333       0.014
   0.73333333 -0.46666667 -0.06666667       0.014
   0.66666667 -0.40000000 -0.00000000       0.007
   1.00000000 -0.73333333 -0.20000000       0.007
   0.93333333 -0.66666667 -0.13333333       0.014
   0.86666667 -0.60000000 -0.06666667       0.014
   0.80000000 -0.53333333  0.00000000       0.007
   1.00000000 -0.73333333 -0.06666667       0.007
   0.93333333 -0.66666667  0.00000000       0.007
   1.00000000 -0.60000000 -0.20000000       0.007
   0.93333333 -0.53333333 -0.13333333       0.014
   1.00000000 -0.60000000 -0.06666667       0.007
   0.93333333 -0.53333333  0.00000000       0.007
 
 k-points in reciprocal lattice and weights: Automatic mesh                          
   0.00000000  0.00000000  0.00000000       0.000
   0.06666667  0.00000000  0.00000000       0.002
   0.13333333  0.00000000  0.00000000       0.002
   0.20000000  0.00000000  0.00000000       0.002
   0.26666667  0.00000000  0.00000000       0.002
   0.33333333  0.00000000  0.00000000       0.002
   0.40000000  0.00000000  0.00000000       0.002
   0.46666667  0.00000000  0.00000000       0.002
   0.06666667  0.06666667  0.00000000       0.002
   0.13333333  0.06666667  0.00000000       0.007
   0.20000000  0.06666667  0.00000000       0.007
   0.26666667  0.06666667  0.00000000       0.007
   0.33333333  0.06666667  0.00000000       0.007
   0.40000000  0.06666667  0.00000000       0.007
   0.46666667  0.06666667  0.00000000       0.007
  -0.46666667  0.06666667  0.00000000       0.007
  -0.40000000  0.06666667  0.00000000       0.007
  -0.33333333  0.06666667  0.00000000       0.007
  -0.26666667  0.06666667  0.00000000       0.007
  -0.20000000  0.06666667  0.00000000       0.007
  -0.13333333  0.06666667  0.00000000       0.007
  -0.06666667  0.06666667  0.00000000       0.004
   0.13333333  0.13333333  0.00000000       0.002
   0.20000000  0.13333333  0.00000000       0.007
   0.26666667  0.13333333  0.00000000       0.007
   0.33333333  0.13333333  0.00000000       0.007
   0.40000000  0.13333333  0.00000000       0.007
   0.46666667  0.13333333  0.00000000       0.007
  -0.46666667  0.13333333  0.00000000       0.007
  -0.40000000  0.13333333  0.00000000       0.007
  -0.33333333  0.13333333  0.00000000       0.007
  -0.26666667  0.13333333  0.00000000       0.007
  -0.20000000  0.13333333  0.00000000       0.007
  -0.13333333  0.13333333  0.00000000       0.004
   0.20000000  0.20000000  0.00000000       0.002
   0.26666667  0.20000000  0.00000000       0.007
   0.33333333  0.20000000  0.00000000       0.007
   0.40000000  0.20000000  0.00000000       0.007
   0.46666667  0.20000000  0.00000000       0.007
  -0.46666667  0.20000000  0.00000000       0.007
  -0.40000000  0.20000000  0.00000000       0.007
  -0.33333333  0.20000000  0.00000000       0.007
  -0.26666667  0.20000000  0.00000000       0.007
  -0.20000000  0.20000000  0.00000000       0.004
   0.26666667  0.26666667  0.00000000       0.002
   0.33333333  0.26666667  0.00000000       0.007
   0.40000000  0.26666667  0.00000000       0.007
   0.46666667  0.26666667  0.00000000       0.007
  -0.46666667  0.26666667  0.00000000       0.007
  -0.40000000  0.26666667  0.00000000       0.007
  -0.33333333  0.26666667  0.00000000       0.007
  -0.26666667  0.26666667  0.00000000       0.004
   0.33333333  0.33333333  0.00000000       0.002
   0.40000000  0.33333333  0.00000000       0.007
   0.46666667  0.33333333  0.00000000       0.007
  -0.46666667  0.33333333  0.00000000       0.007
  -0.40000000  0.33333333  0.00000000       0.007
  -0.33333333  0.33333333  0.00000000       0.004
   0.40000000  0.40000000  0.00000000       0.002
   0.46666667  0.40000000  0.00000000       0.007
  -0.46666667  0.40000000  0.00000000       0.007
  -0.40000000  0.40000000  0.00000000       0.004
   0.46666667  0.46666667  0.00000000       0.002
  -0.46666667  0.46666667  0.00000000       0.004
   0.20000000  0.13333333  0.06666667       0.007
   0.26666667  0.13333333  0.06666667       0.014
   0.33333333  0.13333333  0.06666667       0.014
   0.40000000  0.13333333  0.06666667       0.014
   0.46666667  0.13333333  0.06666667       0.014
  -0.46666667  0.13333333  0.06666667       0.014
   0.26666667  0.20000000  0.06666667       0.007
   0.33333333  0.20000000  0.06666667       0.014
   0.40000000  0.20000000  0.06666667       0.014
   0.46666667  0.20000000  0.06666667       0.014
  -0.46666667  0.20000000  0.06666667       0.014
  -0.40000000  0.20000000  0.06666667       0.014
  -0.33333333  0.20000000  0.06666667       0.014
  -0.26666667  0.20000000  0.06666667       0.014
  -0.20000000  0.20000000  0.06666667       0.014
  -0.13333333  0.20000000  0.06666667       0.007
   0.33333333  0.26666667  0.06666667       0.007
   0.40000000  0.26666667  0.06666667       0.014
   0.46666667  0.26666667  0.06666667       0.014
  -0.46666667  0.26666667  0.06666667       0.014
  -0.40000000  0.26666667  0.06666667       0.014
  -0.33333333  0.26666667  0.06666667       0.014
  -0.26666667  0.26666667  0.06666667       0.014
  -0.20000000  0.26666667  0.06666667       0.007
   0.40000000  0.33333333  0.06666667       0.007
   0.46666667  0.33333333  0.06666667       0.014
  -0.46666667  0.33333333  0.06666667       0.014
  -0.40000000  0.33333333  0.06666667       0.014
  -0.33333333  0.33333333  0.06666667       0.014
  -0.26666667  0.33333333  0.06666667       0.007
   0.46666667  0.40000000  0.06666667       0.007
  -0.46666667  0.40000000  0.06666667       0.014
  -0.40000000  0.40000000  0.06666667       0.014
  -0.33333333  0.40000000  0.06666667       0.007
  -0.46666667  0.46666667  0.06666667       0.007
  -0.40000000  0.46666667  0.06666667       0.007
   0.40000000  0.26666667  0.13333333       0.007
   0.46666667  0.26666667  0.13333333       0.014
  -0.46666667  0.26666667  0.13333333       0.014
  -0.40000000  0.26666667  0.13333333       0.014
   0.46666667  0.33333333  0.13333333       0.007
  -0.46666667  0.33333333  0.13333333       0.014
  -0.40000000  0.33333333  0.13333333       0.014
  -0.33333333  0.33333333  0.13333333       0.014
  -0.26666667  0.33333333  0.13333333       0.014
  -0.20000000  0.33333333  0.13333333       0.007
  -0.46666667  0.40000000  0.13333333       0.007
  -0.40000000  0.40000000  0.13333333       0.014
  -0.33333333  0.40000000  0.13333333       0.014
  -0.26666667  0.40000000  0.13333333       0.007
  -0.40000000  0.46666667  0.13333333       0.007
  -0.33333333  0.46666667  0.13333333       0.007
  -0.40000000  0.40000000  0.20000000       0.007
  -0.33333333  0.40000000  0.20000000       0.014
  -0.33333333  0.46666667  0.20000000       0.007
  -0.26666667  0.46666667  0.20000000       0.007
 
 position of ions in fractional coordinates (direct lattice) 
   0.00000000  0.00000000  0.00000000
   0.50000000  0.50000000  0.50000000
 
 position of ions in cartesian coordinates  (Angst):
   0.00000000  0.00000000  0.00000000
   2.03557650  2.03557650  2.03557650
 


--------------------------------------------------------------------------------------------------------


 k-point  1 :   0.0000 0.0000 0.0000  plane waves:     411
 k-point  2 :   0.0667 0.0000 0.0000  plane waves:     423
 k-point  3 :   0.1333 0.0000 0.0000  plane waves:     429
 k-point  4 :   0.2000 0.0000 0.0000  plane waves:     429
 k-point  5 :   0.2667 0.0000 0.0000  plane waves:     429
 k-point  6 :   0.3333 0.0000 0.0000  plane waves:     425
 k-point  7 :   0.4000 0.0000 0.0000  plane waves:     422
 k-point  8 :   0.4667 0.0000 0.0000  plane waves:     428
 k-point  9 :   0.0667 0.0667 0.0000  plane waves:     427
 k-point 10 :   0.1333 0.0667 0.0000  plane waves:     429
 k-point 11 :   0.2000 0.0667 0.0000  plane waves:     431
 k-point 12 :   0.2667 0.0667 0.0000  plane waves:     430
 k-point 13 :   0.3333 0.0667 0.0000  plane waves:     427
 k-point 14 :   0.4000 0.0667 0.0000  plane waves:     425
 k-point 15 :   0.4667 0.0667 0.0000  plane waves:     424
 k-point 16 :  -0.4667 0.0667 0.0000  plane waves:     428
 k-point 17 :  -0.4000 0.0667 0.0000  plane waves:     425
 k-point 18 :  -0.3333 0.0667 0.0000  plane waves:     425
 k-point 19 :  -0.2667 0.0667 0.0000  plane waves:     423
 k-point 20 :  -0.2000 0.0667 0.0000  plane waves:     427
 k-point 21 :  -0.1333 0.0667 0.0000  plane waves:     431
 k-point 22 :  -0.0667 0.0667 0.0000  plane waves:     427
 k-point 23 :   0.1333 0.1333 0.0000  plane waves:     431
 k-point 24 :   0.2000 0.1333 0.0000  plane waves:     431
 k-point 25 :   0.2667 0.1333 0.0000  plane waves:     430
 k-point 26 :   0.3333 0.1333 0.0000  plane waves:     430
 k-point 27 :   0.4000 0.1333 0.0000  plane waves:     427
 k-point 28 :   0.4667 0.1333 0.0000  plane waves:     430
 k-point 29 :  -0.4667 0.1333 0.0000  plane waves:     426
 k-point 30 :  -0.4000 0.1333 0.0000  plane waves:     429
 k-point 31 :  -0.3333 0.1333 0.0000  plane waves:     429
 k-point 32 :  -0.2667 0.1333 0.0000  plane waves:     426
 k-point 33 :  -0.2000 0.1333 0.0000  plane waves:     429
 k-point 34 :  -0.1333 0.1333 0.0000  plane waves:     437
 k-point 35 :   0.2000 0.2000 0.0000  plane waves:     423
 k-point 36 :   0.2667 0.2000 0.0000  plane waves:     430
 k-point 37 :   0.3333 0.2000 0.0000  plane waves:     436
 k-point 38 :   0.4000 0.2000 0.0000  plane waves:     435
 k-point 39 :   0.4667 0.2000 0.0000  plane waves:     431
 k-point 40 :  -0.4667 0.2000 0.0000  plane waves:     429
 k-point 41 :  -0.4000 0.2000 0.0000  plane waves:     424
 k-point 42 :  -0.3333 0.2000 0.0000  plane waves:     426
 k-point 43 :  -0.2667 0.2000 0.0000  plane waves:     425
 k-point 44 :  -0.2000 0.2000 0.0000  plane waves:     429
 k-point 45 :   0.2667 0.2667 0.0000  plane waves:     431
 k-point 46 :   0.3333 0.2667 0.0000  plane waves:     435
 k-point 47 :   0.4000 0.2667 0.0000  plane waves:     431
 k-point 48 :   0.4667 0.2667 0.0000  plane waves:     428
 k-point 49 :  -0.4667 0.2667 0.0000  plane waves:     431
 k-point 50 :  -0.4000 0.2667 0.0000  plane waves:     426
 k-point 51 :  -0.3333 0.2667 0.0000  plane waves:     425
 k-point 52 :  -0.2667 0.2667 0.0000  plane waves:     423
 k-point 53 :   0.3333 0.3333 0.0000  plane waves:     432
 k-point 54 :   0.4000 0.3333 0.0000  plane waves:     436
 k-point 55 :   0.4667 0.3333 0.0000  plane waves:     431
 k-point 56 :  -0.4667 0.3333 0.0000  plane waves:     429
 k-point 57 :  -0.4000 0.3333 0.0000  plane waves:     430
 k-point 58 :  -0.3333 0.3333 0.0000  plane waves:     431
 k-point 59 :   0.4000 0.4000 0.0000  plane waves:     444
 k-point 60 :   0.4667 0.4000 0.0000  plane waves:     436
 k-point 61 :  -0.4667 0.4000 0.0000  plane waves:     431
 k-point 62 :  -0.4000 0.4000 0.0000  plane waves:     432
 k-point 63 :   0.4667 0.4667 0.0000  plane waves:     444
 k-point 64 :  -0.4667 0.4667 0.0000  plane waves:     442
 k-point 65 :   0.2000 0.1333 0.0667  plane waves:     431
 k-point 66 :   0.2667 0.1333 0.0667  plane waves:     430
 k-point 67 :   0.3333 0.1333 0.0667  plane waves:     429
 k-point 68 :   0.4000 0.1333 0.0667  plane waves:     429
 k-point 69 :   0.4667 0.1333 0.0667  plane waves:     430
 k-point 70 :  -0.4667 0.1333 0.0667  plane waves:     431
 k-point 71 :   0.2667 0.2000 0.0667  plane waves:     430
 k-point 72 :   0.3333 0.2000 0.0667  plane waves:     427
 k-point 73 :   0.4000 0.2000 0.0667  plane waves:     433
 k-point 74 :   0.4667 0.2000 0.0667  plane waves:     432
 k-point 75 :  -0.4667 0.2000 0.0667  plane waves:     430
 k-point 76 :  -0.4000 0.2000 0.0667  plane waves:     428
 k-point 77 :  -0.3333 0.2000 0.0667  plane waves:     428
 k-point 78 :  -0.2667 0.2000 0.0667  plane waves:     424
 k-point 79 :  -0.2000 0.2000 0.0667  plane waves:     427
 k-point 80 :  -0.1333 0.2000 0.0667  plane waves:     429
 k-point 81 :   0.3333 0.2667 0.0667  plane waves:     430
 k-point 82 :   0.4000 0.2667 0.0667  plane waves:     429
 k-point 83 :   0.4667 0.2667 0.0667  plane waves:     430
 k-point 84 :  -0.4667 0.2667 0.0667  plane waves:     427
 k-point 85 :  -0.4000 0.2667 0.0667  plane waves:     427
 k-point 86 :  -0.3333 0.2667 0.0667  plane waves:     425
 k-point 87 :  -0.2667 0.2667 0.0667  plane waves:     425
 k-point 88 :  -0.2000 0.2667 0.0667  plane waves:     422
 k-point 89 :   0.4000 0.3333 0.0667  plane waves:     434
 k-point 90 :   0.4667 0.3333 0.0667  plane waves:     430
 k-point 91 :  -0.4667 0.3333 0.0667  plane waves:     429
 k-point 92 :  -0.4000 0.3333 0.0667  plane waves:     427
 k-point 93 :  -0.3333 0.3333 0.0667  plane waves:     424
 k-point 94 :  -0.2667 0.3333 0.0667  plane waves:     423
 k-point 95 :   0.4667 0.4000 0.0667  plane waves:     434
 k-point 96 :  -0.4667 0.4000 0.0667  plane waves:     431
 k-point 97 :  -0.4000 0.4000 0.0667  plane waves:     429
 k-point 98 :  -0.3333 0.4000 0.0667  plane waves:     429
 k-point 99 :  -0.4667 0.4667 0.0667  plane waves:     436
 k-point ** :  -0.4000 0.4667 0.0667  plane waves:     431
 k-point ** :   0.4000 0.2667 0.1333  plane waves:     426
 k-point ** :   0.4667 0.2667 0.1333  plane waves:     425
 k-point ** :  -0.4667 0.2667 0.1333  plane waves:     426
 k-point ** :  -0.4000 0.2667 0.1333  plane waves:     423
 k-point ** :   0.4667 0.3333 0.1333  plane waves:     427
 k-point ** :  -0.4667 0.3333 0.1333  plane waves:     428
 k-point ** :  -0.4000 0.3333 0.1333  plane waves:     426
 k-point ** :  -0.3333 0.3333 0.1333  plane waves:     429
 k-point ** :  -0.2667 0.3333 0.1333  plane waves:     425
 k-point ** :  -0.2000 0.3333 0.1333  plane waves:     423
 k-point ** :  -0.4667 0.4000 0.1333  plane waves:     429
 k-point ** :  -0.4000 0.4000 0.1333  plane waves:     429
 k-point ** :  -0.3333 0.4000 0.1333  plane waves:     427
 k-point ** :  -0.2667 0.4000 0.1333  plane waves:     424
 k-point ** :  -0.4000 0.4667 0.1333  plane waves:     434
 k-point ** :  -0.3333 0.4667 0.1333  plane waves:     430
 k-point ** :  -0.4000 0.4000 0.2000  plane waves:     422
 k-point ** :  -0.3333 0.4000 0.2000  plane waves:     425
 k-point ** :  -0.3333 0.4667 0.2000  plane waves:     427
 k-point ** :  -0.2667 0.4667 0.2000  plane waves:     428

 maximum number of plane-waves:       444
 maximum index in each direction: 
   IXMAX=    5   IYMAX=    5   IZMAX=    5
   IXMIN=   -5   IYMIN=   -5   IZMIN=   -5

 NGX is ok and might be reduce to  22
 NGY is ok and might be reduce to  22
 NGZ is ok and might be reduce to  22

 total amount of memory used by VASP on root node    70376. kBytes
========================================================================

   base      :      30000. kBytes
   nonl-proj :      15358. kBytes
   grid      :       6939. kBytes
   one-center:         31. kBytes
   wavefun   :      18048. kBytes
 
     INWAV:  cpu time    0.0000: real time    0.0000
 Broyden mixing: mesh for mixing (old mesh)
   NGX = 11   NGY = 11   NGZ = 11
  (NGX  = 48   NGY  = 48   NGZ  = 48)
  gives a total of   1331 points

 initial charge density was supplied:
 charge density of overlapping atoms calculated
 number of electron      10.0000000 magnetization 
 keeping initial charge density in first step


--------------------------------------------------------------------------------------------------------


 Maximum index for augmentation-charges        48149 (set IRDMAX)


--------------------------------------------------------------------------------------------------------


 First call to EWALD:  gamma=   0.691
 Maximum number of real-space cells 3x 3x 3
 Maximum number of reciprocal cells 3x 3x 3

    FEWALD:  cpu time    0.0014: real time    0.0014


----------------------------------------- Iteration    1(   1)  ---------------------------------------


    POTLOK:  cpu time    0.1646: real time    0.1660
    SETDIJ:  cpu time    0.0210: real time    0.0233
     EDDAV:  cpu time    4.8982: real time    4.9134
 BZINTS: Fermi energy: 16.931367; 10.000000 electrons
         Band energy:  69.821153;  BLOECHL correction: -0.191647
       DOS:  cpu time    0.0159: real time    0.0181
    --------------------------------------------
      LOOP:  cpu time    5.1022: real time    5.1232

 eigenvalue-minimisations  :  5656
 total energy-change (2. order) : 0.2886990E+02  (-0.4249257E+03)
 number of electron      10.0000000 magnetization 
 augmentation part       10.0000000 magnetization 

 Free energy of the ion-electron system (eV)
  ---------------------------------------------------
  alpha Z        PSCENC =        49.51023716
  Ewald energy   TEWEN  =      -501.78021034
  -Hartree energ DENC   =       -46.29942411
  -exchange      EXHF   =         0.00000000
  -V(xc)+E(xc)   XCENC  =       -23.93382430
  PAW double counting   =       279.99911580     -232.32473273
  entropy T*S    EENTRO =         0.00000000
  eigenvalues    EBANDS =        69.82115256
  atomic energy  EATOM  =       433.87758753
  Solvation  Ediel_sol  =         0.00000000
  ---------------------------------------------------
  free energy    TOTEN  =        28.86990156 eV

  energy without entropy =       28.86990156  energy(sigma->0) =       28.86990156


--------------------------------------------------------------------------------------------------------




----------------------------------------- Iteration    1(   2)  ---------------------------------------


     EDDAV:  cpu time    4.4303: real time    4.4405
 BZINTS: Fermi energy: 12.023877; 10.000000 electrons
         Band energy:  18.901516;  BLOECHL correction: -0.041826
       DOS:  cpu time    0.0168: real time    0.0168
    --------------------------------------------
      LOOP:  cpu time    4.4479: real time    4.4582

 eigenvalue-minimisations  :  5012
 total energy-change (2. order) :-0.5091964E+02  (-0.4507988E+02)
 number of electron      10.0000000 magnetization 
 augmentation part       10.0000000 magnetization 

 Free energy of the ion-electron system (eV)
  ---------------------------------------------------
  alpha Z        PSCENC =        49.51023716
  Ewald energy   TEWEN  =      -501.78021034
  -Hartree energ DENC   =       -46.29942411
  -exchange      EXHF   =         0.00000000
  -V(xc)+E(xc)   XCENC  =       -23.93382430
  PAW double counting   =       279.99911580     -232.32473273
  entropy T*S    EENTRO =         0.00000000
  eigenvalues    EBANDS =        18.90151639
  atomic energy  EATOM  =       433.87758753
  Solvation  Ediel_sol  =         0.00000000
  ---------------------------------------------------
  free energy    TOTEN  =       -22.04973461 eV

  energy without entropy =      -22.04973461  energy(sigma->0) =      -22.04973461


--------------------------------------------------------------------------------------------------------




----------------------------------------- Iteration    1(   3)  ---------------------------------------


     EDDAV:  cpu time    4.7517: real time    4.7541
 BZINTS: Fermi energy: 11.749571; 10.000000 electrons
         Band energy:  16.535670;  BLOECHL correction: -0.036694
       DOS:  cpu time    0.0159: real time    0.0159
    --------------------------------------------
      LOOP:  cpu time    4.7686: real time    4.7727

 eigenvalue-minimisations  :  5460
 total energy-change (2. order) :-0.2365846E+01  (-0.2329393E+01)
 number of electron      10.0000000 magnetization 
 augmentation part       10.0000000 magnetization 

 Free energy of the ion-electron system (eV)
  ---------------------------------------------------
  alpha Z        PSCENC =        49.51023716
  Ewald energy   TEWEN  =      -501.78021034
  -Hartree energ DENC   =       -46.29942411
  -exchange      EXHF   =         0.00000000
  -V(xc)+E(xc)   XCENC  =       -23.93382430
  PAW double counting   =       279.99911580     -232.32473273
  entropy T*S    EENTRO =         0.00000000
  eigenvalues    EBANDS =        16.53567024
  atomic energy  EATOM  =       433.87758753
  Solvation  Ediel_sol  =         0.00000000
  ---------------------------------------------------
  free energy    TOTEN  =       -24.41558076 eV

  energy without entropy =      -24.41558076  energy(sigma->0) =      -24.41558076


--------------------------------------------------------------------------------------------------------




----------------------------------------- Iteration    1(   4)  ---------------------------------------


     EDDAV:  cpu time    4.7511: real time    4.7533
 BZINTS: Fermi energy: 11.747615; 10.000000 electrons
         Band energy:  16.522314;  BLOECHL correction: -0.036625
       DOS:  cpu time    0.0167: real time    0.0167
    --------------------------------------------
      LOOP:  cpu time    4.7700: real time    4.7738

 eigenvalue-minimisations  :  5404
 total energy-change (2. order) :-0.1335661E-01  (-0.1338071E-01)
 number of electron      10.0000000 magnetization 
 augmentation part       10.0000000 magnetization 

 Free energy of the ion-electron system (eV)
  ---------------------------------------------------
  alpha Z        PSCENC =        49.51023716
  Ewald energy   TEWEN  =      -501.78021034
  -Hartree energ DENC   =       -46.29942411
  -exchange      EXHF   =         0.00000000
  -V(xc)+E(xc)   XCENC  =       -23.93382430
  PAW double counting   =       279.99911580     -232.32473273
  entropy T*S    EENTRO =         0.00000000
  eigenvalues    EBANDS =        16.52231363
  atomic energy  EATOM  =       433.87758753
  Solvation  Ediel_sol  =         0.00000000
  ---------------------------------------------------
  free energy    TOTEN  =       -24.42893737 eV

  energy without entropy =      -24.42893737  energy(sigma->0) =      -24.42893737


--------------------------------------------------------------------------------------------------------




----------------------------------------- Iteration    1(   5)  ---------------------------------------


     EDDAV:  cpu time    4.6335: real time    4.6349
 BZINTS: Fermi energy: 11.747608; 10.000000 electrons
         Band energy:  16.522251;  BLOECHL correction: -0.036625
       DOS:  cpu time    0.0160: real time    0.0160
    CHARGE:  cpu time    0.2045: real time    0.2045
    MIXING:  cpu time    0.0025: real time    0.0344
    --------------------------------------------
      LOOP:  cpu time    4.8576: real time    4.8926

 eigenvalue-minimisations  :  5352
 total energy-change (2. order) :-0.6248157E-04  (-0.6265335E-04)
 number of electron       9.9999999 magnetization 
 augmentation part        1.4338262 magnetization 

 Broyden mixing:
  rms(total) = 0.13110E+01    rms(broyden)= 0.13109E+01
  rms(prec ) = 0.54995E+01
  weight for this iteration     100.00

 Free energy of the ion-electron system (eV)
  ---------------------------------------------------
  alpha Z        PSCENC =        49.51023716
  Ewald energy   TEWEN  =      -501.78021034
  -Hartree energ DENC   =       -46.29942411
  -exchange      EXHF   =         0.00000000
  -V(xc)+E(xc)   XCENC  =       -23.93382430
  PAW double counting   =       279.99911580     -232.32473273
  entropy T*S    EENTRO =         0.00000000
  eigenvalues    EBANDS =        16.52225115
  atomic energy  EATOM  =       433.87758753
  Solvation  Ediel_sol  =         0.00000000
  ---------------------------------------------------
  free energy    TOTEN  =       -24.42899985 eV

  energy without entropy =      -24.42899985  energy(sigma->0) =      -24.42899985


--------------------------------------------------------------------------------------------------------




----------------------------------------- Iteration    1(   6)  ---------------------------------------


    POTLOK:  cpu time    0.1669: real time    0.1671
    SETDIJ:  cpu time    0.0172: real time    0.0171
     EDDAV:  cpu time    5.1048: real time    5.1068
 BZINTS: Fermi energy:  8.969455; 10.000000 electrons
         Band energy:  27.314504;  BLOECHL correction: -0.020691
       DOS:  cpu time    0.0184: real time    0.0184
    CHARGE:  cpu time    0.2076: real time    0.2077
    MIXING:  cpu time    0.0037: real time    0.0074
    --------------------------------------------
      LOOP:  cpu time    5.5197: real time    5.5258

 eigenvalue-minimisations  :  6024
 total energy-change (2. order) : 0.4078298E+01  (-0.2869353E+01)
 number of electron       9.9999999 magnetization 
 augmentation part        2.3659482 magnetization 

 Broyden mixing:
  rms(total) = 0.69977E+00    rms(broyden)= 0.69961E+00
  rms(prec ) = 0.27091E+01
  weight for this iteration     100.00

 eigenvalues of (default mixing * dielectric matrix)
  average eigenvalue GAMMA=   0.6594
  0.6594

 Free energy of the ion-electron system (eV)
  ---------------------------------------------------
  alpha Z        PSCENC =        49.51023716
  Ewald energy   TEWEN  =      -501.78021034
  -Hartree energ DENC   =       -55.43711429
  -exchange      EXHF   =         0.00000000
  -V(xc)+E(xc)   XCENC  =       -22.38880999
  PAW double counting   =       323.41071362     -274.85760943
  entropy T*S    EENTRO =         0.00000000
  eigenvalues    EBANDS =        27.31450389
  atomic energy  EATOM  =       433.87758753
  Solvation  Ediel_sol  =         0.00000000
  ---------------------------------------------------
  free energy    TOTEN  =       -20.35070185 eV

  energy without entropy =      -20.35070185  energy(sigma->0) =      -20.35070185


--------------------------------------------------------------------------------------------------------




----------------------------------------- Iteration    1(   7)  ---------------------------------------


    POTLOK:  cpu time    0.1631: real time    0.1633
    SETDIJ:  cpu time    0.0173: real time    0.0173
     EDDAV:  cpu time    5.2564: real time    5.2581
 BZINTS: Fermi energy:  9.947202; 10.000000 electrons
         Band energy:  24.750830;  BLOECHL correction: -0.027090
       DOS:  cpu time    0.0165: real time    0.0165
    CHARGE:  cpu time    0.2035: real time    0.2035
    MIXING:  cpu time    0.0023: real time    0.0040
    --------------------------------------------
      LOOP:  cpu time    5.6601: real time    5.6652

 eigenvalue-minimisations  :  6272
 total energy-change (2. order) : 0.7873174E+00  (-0.6373871E+00)
 number of electron       9.9999999 magnetization 
 augmentation part        1.8891502 magnetization 

 Broyden mixing:
  rms(total) = 0.25193E+00    rms(broyden)= 0.25190E+00
  rms(prec ) = 0.95449E+00
  weight for this iteration     100.00

 eigenvalues of (default mixing * dielectric matrix)
  average eigenvalue GAMMA=   1.6406
  2.6815  0.5996

 Free energy of the ion-electron system (eV)
  ---------------------------------------------------
  alpha Z        PSCENC =        49.51023716
  Ewald energy   TEWEN  =      -501.78021034
  -Hartree energ DENC   =       -50.52925383
  -exchange      EXHF   =         0.00000000
  -V(xc)+E(xc)   XCENC  =       -22.97561820
  PAW double counting   =       338.10651949     -290.52347621
  entropy T*S    EENTRO =         0.00000000
  eigenvalues    EBANDS =        24.75083000
  atomic energy  EATOM  =       433.87758753
  Solvation  Ediel_sol  =         0.00000000
  ---------------------------------------------------
  free energy    TOTEN  =       -19.56338440 eV

  energy without entropy =      -19.56338440  energy(sigma->0) =      -19.56338440


--------------------------------------------------------------------------------------------------------




----------------------------------------- Iteration    1(   8)  ---------------------------------------


    POTLOK:  cpu time    0.1823: real time    0.1835
    SETDIJ:  cpu time    0.0186: real time    0.0187
     EDDAV:  cpu time    4.7761: real time    4.7779
 BZINTS: Fermi energy:  8.989229; 10.000000 electrons
         Band energy:  24.584208;  BLOECHL correction: -0.024203
       DOS:  cpu time    0.0208: real time    0.0208
    CHARGE:  cpu time    0.2099: real time    0.2099
    MIXING:  cpu time    0.0019: real time    0.0019
    --------------------------------------------
      LOOP:  cpu time    5.2104: real time    5.2149

 eigenvalue-minimisations  :  5544
 total energy-change (2. order) :-0.6344258E-01  (-0.2208717E+00)
 number of electron       9.9999999 magnetization 
 augmentation part        2.2187299 magnetization 

 Broyden mixing:
  rms(total) = 0.32417E+00    rms(broyden)= 0.32416E+00
  rms(prec ) = 0.13688E+01
  weight for this iteration     100.00

 eigenvalues of (default mixing * dielectric matrix)
  average eigenvalue GAMMA=   1.2650
  2.2797  0.9809  0.5343

 Free energy of the ion-electron system (eV)
  ---------------------------------------------------
  alpha Z        PSCENC =        49.51023716
  Ewald energy   TEWEN  =      -501.78021034
  -Hartree energ DENC   =       -50.10793106
  -exchange      EXHF   =         0.00000000
  -V(xc)+E(xc)   XCENC  =       -22.66433581
  PAW double counting   =       395.05322538     -348.09960749
  entropy T*S    EENTRO =         0.00000000
  eigenvalues    EBANDS =        24.58420766
  atomic energy  EATOM  =       433.87758753
  Solvation  Ediel_sol  =         0.00000000
  ---------------------------------------------------
  free energy    TOTEN  =       -19.62682698 eV

  energy without entropy =      -19.62682698  energy(sigma->0) =      -19.62682698


--------------------------------------------------------------------------------------------------------




----------------------------------------- Iteration    1(   9)  ---------------------------------------


    POTLOK:  cpu time    0.1681: real time    0.1716
    SETDIJ:  cpu time    0.0214: real time    0.0215
     EDDAV:  cpu time    4.8299: real time    4.8321
 BZINTS: Fermi energy:  9.578831; 10.000000 electrons
         Band energy:  24.415357;  BLOECHL correction: -0.025887
       DOS:  cpu time    0.0165: real time    0.0165
    CHARGE:  cpu time    0.2151: real time    0.2152
    MIXING:  cpu time    0.0028: real time    0.0028
    --------------------------------------------
      LOOP:  cpu time    5.2556: real time    5.2629

 eigenvalue-minimisations  :  5564
 total energy-change (2. order) : 0.2123830E+00  (-0.1193151E+00)
 number of electron       9.9999999 magnetization 
 augmentation part        1.9926703 magnetization 

 Broyden mixing:
  rms(total) = 0.45494E-01    rms(broyden)= 0.45428E-01
  rms(prec ) = 0.19106E+00
  weight for this iteration     100.00

 eigenvalues of (default mixing * dielectric matrix)
  average eigenvalue GAMMA=   1.3671
  2.4503  0.5361  1.1775  1.3047

 Free energy of the ion-electron system (eV)
  ---------------------------------------------------
  alpha Z        PSCENC =        49.51023716
  Ewald energy   TEWEN  =      -501.78021034
  -Hartree energ DENC   =       -49.43568744
  -exchange      EXHF   =         0.00000000
  -V(xc)+E(xc)   XCENC  =       -22.88985525
  PAW double counting   =       380.21224212     -333.32411474
  entropy T*S    EENTRO =         0.00000000
  eigenvalues    EBANDS =        24.41535704
  atomic energy  EATOM  =       433.87758753
  Solvation  Ediel_sol  =         0.00000000
  ---------------------------------------------------
  free energy    TOTEN  =       -19.41444394 eV

  energy without entropy =      -19.41444394  energy(sigma->0) =      -19.41444394


--------------------------------------------------------------------------------------------------------




----------------------------------------- Iteration    1(  10)  ---------------------------------------


    POTLOK:  cpu time    0.1632: real time    0.1634
    SETDIJ:  cpu time    0.0164: real time    0.0164
     EDDAV:  cpu time    5.6956: real time    5.6980
 BZINTS: Fermi energy:  9.525220; 10.000000 electrons
         Band energy:  24.745812;  BLOECHL correction: -0.025758
       DOS:  cpu time    0.0235: real time    0.0235
    CHARGE:  cpu time    0.2054: real time    0.2055
    MIXING:  cpu time    0.0022: real time    0.0022
    --------------------------------------------
      LOOP:  cpu time    6.1070: real time    6.1114

 eigenvalue-minimisations  :  6964
 total energy-change (2. order) : 0.3981935E-02  (-0.3115441E-02)
 number of electron       9.9999999 magnetization 
 augmentation part        2.0197103 magnetization 

 Broyden mixing:
  rms(total) = 0.93546E-02    rms(broyden)= 0.93534E-02
  rms(prec ) = 0.36023E-01
  weight for this iteration     100.00

 eigenvalues of (default mixing * dielectric matrix)
  average eigenvalue GAMMA=   1.4559
  2.6697  1.5286  1.5286  0.5340  1.0188

 Free energy of the ion-electron system (eV)
  ---------------------------------------------------
  alpha Z        PSCENC =        49.51023716
  Ewald energy   TEWEN  =      -501.78021034
  -Hartree energ DENC   =       -49.69829418
  -exchange      EXHF   =         0.00000000
  -V(xc)+E(xc)   XCENC  =       -22.84202907
  PAW double counting   =       387.81820403     -341.04176957
  entropy T*S    EENTRO =         0.00000000
  eigenvalues    EBANDS =        24.74581245
  atomic energy  EATOM  =       433.87758753
  Solvation  Ediel_sol  =         0.00000000
  ---------------------------------------------------
  free energy    TOTEN  =       -19.41046200 eV

  energy without entropy =      -19.41046200  energy(sigma->0) =      -19.41046200


--------------------------------------------------------------------------------------------------------




----------------------------------------- Iteration    1(  11)  ---------------------------------------


    POTLOK:  cpu time    0.1747: real time    0.1781
    SETDIJ:  cpu time    0.0167: real time    0.0167
     EDDAV:  cpu time    5.4652: real time    5.4687
 BZINTS: Fermi energy:  9.537926; 10.000000 electrons
         Band energy:  24.747708;  BLOECHL correction: -0.025780
       DOS:  cpu time    0.0223: real time    0.0223
    CHARGE:  cpu time    0.2100: real time    0.2100
    MIXING:  cpu time    0.0020: real time    0.0020
    --------------------------------------------
      LOOP:  cpu time    5.8917: real time    5.9003

 eigenvalue-minimisations  :  6488
 total energy-change (2. order) : 0.1951620E-03  (-0.1070285E-03)
 number of electron       9.9999999 magnetization 
 augmentation part        2.0152689 magnetization 

 Broyden mixing:
  rms(total) = 0.17296E-02    rms(broyden)= 0.17293E-02
  rms(prec ) = 0.61909E-02
  weight for this iteration     100.00

 eigenvalues of (default mixing * dielectric matrix)
  average eigenvalue GAMMA=   1.4392
  2.6243  0.5339  1.9567  1.0111  1.2545  1.2545

 Free energy of the ion-electron system (eV)
  ---------------------------------------------------
  alpha Z        PSCENC =        49.51023716
  Ewald energy   TEWEN  =      -501.78021034
  -Hartree energ DENC   =       -49.66246201
  -exchange      EXHF   =         0.00000000
  -V(xc)+E(xc)   XCENC  =       -22.84550036
  PAW double counting   =       389.47329967     -342.73092685
  entropy T*S    EENTRO =         0.00000000
  eigenvalues    EBANDS =        24.74770837
  atomic energy  EATOM  =       433.87758753
  Solvation  Ediel_sol  =         0.00000000
  ---------------------------------------------------
  free energy    TOTEN  =       -19.41026684 eV

  energy without entropy =      -19.41026684  energy(sigma->0) =      -19.41026684


--------------------------------------------------------------------------------------------------------




----------------------------------------- Iteration    1(  12)  ---------------------------------------


    POTLOK:  cpu time    0.1728: real time    0.1731
    SETDIJ:  cpu time    0.0167: real time    0.0167
     EDDAV:  cpu time    5.7618: real time    5.7646
 BZINTS: Fermi energy:  9.540400; 10.000000 electrons
         Band energy:  24.745999;  BLOECHL correction: -0.025792
       DOS:  cpu time    0.0254: real time    0.0254
    CHARGE:  cpu time    0.1983: real time    0.1985
    MIXING:  cpu time    0.0022: real time    0.0022
    --------------------------------------------
      LOOP:  cpu time    6.1785: real time    6.1833

 eigenvalue-minimisations  :  6944
 total energy-change (2. order) : 0.3397803E-05  (-0.3245462E-05)
 number of electron       9.9999999 magnetization 
 augmentation part        2.0144204 magnetization 

 Broyden mixing:
  rms(total) = 0.68318E-03    rms(broyden)= 0.68271E-03
  rms(prec ) = 0.16860E-02
  weight for this iteration     100.00

 eigenvalues of (default mixing * dielectric matrix)
  average eigenvalue GAMMA=   1.4813
  2.6176  2.5217  0.5339  1.6148  0.9570  1.0619  1.0619

 Free energy of the ion-electron system (eV)
  ---------------------------------------------------
  alpha Z        PSCENC =        49.51023716
  Ewald energy   TEWEN  =      -501.78021034
  -Hartree energ DENC   =       -49.65861325
  -exchange      EXHF   =         0.00000000
  -V(xc)+E(xc)   XCENC  =       -22.84623095
  PAW double counting   =       389.74261030     -343.00164333
  entropy T*S    EENTRO =         0.00000000
  eigenvalues    EBANDS =        24.74599944
  atomic energy  EATOM  =       433.87758753
  Solvation  Ediel_sol  =         0.00000000
  ---------------------------------------------------
  free energy    TOTEN  =       -19.41026344 eV

  energy without entropy =      -19.41026344  energy(sigma->0) =      -19.41026344


--------------------------------------------------------------------------------------------------------




----------------------------------------- Iteration    1(  13)  ---------------------------------------


    POTLOK:  cpu time    0.1726: real time    0.1728
    SETDIJ:  cpu time    0.0221: real time    0.0222
     EDDAV:  cpu time    5.5461: real time    5.5507
 BZINTS: Fermi energy:  9.539718; 10.000000 electrons
         Band energy:  24.744331;  BLOECHL correction: -0.025791
       DOS:  cpu time    0.0170: real time    0.0170
    --------------------------------------------
      LOOP:  cpu time    5.7586: real time    5.7651

 eigenvalue-minimisations  :  6572
 total energy-change (2. order) :-0.8793520E-06  (-0.1884240E-06)
 number of electron       9.9999999 magnetization 
 augmentation part        2.0144204 magnetization 

 Free energy of the ion-electron system (eV)
  ---------------------------------------------------
  alpha Z        PSCENC =        49.51023716
  Ewald energy   TEWEN  =      -501.78021034
  -Hartree energ DENC   =       -49.66369256
  -exchange      EXHF   =         0.00000000
  -V(xc)+E(xc)   XCENC  =       -22.84612235
  PAW double counting   =       389.55978423     -342.81217865
  entropy T*S    EENTRO =         0.00000000
  eigenvalues    EBANDS =        24.74433067
  atomic energy  EATOM  =       433.87758753
  Solvation  Ediel_sol  =         0.00000000
  ---------------------------------------------------
  free energy    TOTEN  =       -19.41026432 eV

  energy without entropy =      -19.41026432  energy(sigma->0) =      -19.41026432


--------------------------------------------------------------------------------------------------------




 average (electrostatic) potential at core
  the test charge radii are     1.2064  0.7089
  (the norm of the test charge is              1.0000)
       1 -37.2081       2 -60.4256
 
 
 
 E-fermi :   9.5397     XC(G=0): -13.6734     alpha+bet :-17.3061


 k-point     1 :       0.0000    0.0000    0.0000
  band No.  band energies     occupation 
      1      -8.5991      2.00000
      2       7.3556      2.00000
      3       7.3556      2.00000
      4       7.3556      2.00000
      5       7.9346      2.00000
      6       7.9346      2.00000
      7       7.9346      2.00000
      8       9.0133      2.18680
      9       9.0133      2.47881
     10      16.0150      0.00000
     11      23.8478      0.00000
     12      29.7490      0.00000
     13      29.7490      0.00000
     14      29.7490      0.00000
     15      37.4510      0.00000
     16      37.4510      0.00000
     17      38.4482      0.00000
     18      38.4482      0.00000
     19      38.4482      0.00000
     20      47.7509      0.00000

[...]
     10      20.0708      0.00000
     11      22.0623      0.00000
     12      23.8416      0.00000
     13      27.9429      0.00000
     14      30.7261      0.00000
     15      35.3520      0.00000
     16      39.1207      0.00000
     17      40.5578      0.00000
     18      43.5728      0.00000
     19      43.6908      0.00000
     20      44.3567      0.00000

 k-point   111 :      -0.4667    0.4000    0.1333
  band No.  band energies     occupation 
      1      -6.4613      2.00000
      2       2.3625      2.00000
      3       4.0517      2.00000
      4       4.3628      2.00000
      5       7.9609      2.00000
      6      10.5640      0.00000
      7      10.9245      0.00000
      8      11.3277      0.00000
      9      13.0432      0.00000
     10      20.9794      0.00000
     11      22.6925      0.00000
     12      22.8408      0.00000
     13      28.3860      0.00000
     14      30.3596      0.00000
     15      35.8416      0.00000
     16      40.5345      0.00000
     17      41.8910      0.00000
     18      43.7370      0.00000
     19      43.8632      0.00000
     20      45.4363      0.00000

 k-point   112 :      -0.4000    0.4000    0.1333
  band No.  band energies     occupation 
      1      -6.3334      2.00000
      2       2.5520      2.00000
      3       3.5500      2.00000
      4       4.0851      2.00000
      5       8.5025      2.00000
      6      10.4535      0.00000
      7      10.8984      0.00000
      8      11.7099      0.00000
      9      12.8407      0.00000
     10      21.3131      0.00000
     11      22.5653      0.00000
     12      22.6792      0.00000
     13      28.0328      0.00000
     14      31.1766      0.00000
     15      34.5348      0.00000
     16      40.1021      0.00000
     17      42.6440      0.00000
     18      43.6558      0.00000
     19      44.5360      0.00000
     20      46.5677      0.00000

 k-point   113 :      -0.3333    0.4000    0.1333
  band No.  band energies     occupation 
      1      -6.2231      2.00000
      2       2.6548      2.00000
      3       3.0931      2.00000
      4       3.9013      2.00000
      5       9.0435      2.07842
      6      10.1960      0.00000
      7      10.8998      0.00000
      8      12.1411      0.00000
      9      12.7258      0.00000
     10      21.4008      0.00000
     11      22.1772      0.00000
     12      23.0611      0.00000
     13      27.7071      0.00000
     14      31.9335      0.00000
     15      33.3354      0.00000
     16      39.9673      0.00000
     17      43.0158      0.00000
     18      43.1303      0.00000
     19      45.0685      0.00000
     20      47.5244      0.00000

 k-point   114 :      -0.2667    0.4000    0.1333
  band No.  band energies     occupation 
      1      -6.1510      2.00000
      2       2.3279      2.00000
      3       3.1308      2.00000
      4       3.7569      2.00000
      5       9.5841      1.37323
      6       9.8592      0.00000
      7      10.9219      0.00000
      8      12.0920      0.00000
      9      13.1788      0.00000
     10      21.1441      0.00000
     11      21.8640      0.00000
     12      23.4539      0.00000
     13      27.6389      0.00000
     14      32.2574      0.00000
     15      32.8189      0.00000
     16      40.1133      0.00000
     17      42.2645      0.00000
     18      43.3428      0.00000
     19      44.8821      0.00000
     20      46.0318      0.00000

 k-point   115 :      -0.4000    0.4667    0.1333
  band No.  band energies     occupation 
      1      -6.4618      2.00000
      2       2.7431      2.00000
      3       3.9921      2.00000
      4       4.3524      2.00000
      5       7.9390      2.00000
      6      10.6393      0.00000
      7      10.8686      0.00000
      8      11.2682      0.00000
      9      12.5797      0.00000
     10      21.4796      0.00000
     11      22.1820      0.00000
     12      22.9330      0.00000
     13      28.5804      0.00000
     14      30.9062      0.00000
     15      35.0525      0.00000
     16      39.9800      0.00000
     17      43.2690      0.00000
     18      43.8592      0.00000
     19      45.2805      0.00000
     20      46.7382      0.00000

 k-point   116 :      -0.3333    0.4667    0.1333
  band No.  band energies     occupation 
      1      -6.3489      2.00000
      2       2.8736      2.00000
      3       3.4469      2.00000
      4       4.0676      2.00000
      5       8.4980      2.00000
      6      10.4675      0.00000
      7      10.8733      0.00000
      8      11.6861      0.00000
      9      12.5226      0.00000
     10      21.9817      0.00000
     11      22.0747      0.00000
     12      22.6632      0.00000
     13      28.0841      0.00000
     14      31.4649      0.00000
     15      34.0745      0.00000
     16      39.8522      0.00000
     17      43.3802      0.00000
     18      43.6471      0.00000
     19      46.1024      0.00000
     20      47.3471      0.00000

 k-point   117 :      -0.4000    0.4000    0.2000
  band No.  band energies     occupation 
      1      -6.2424      2.00000
      2       2.2920      2.00000
      3       3.4986      2.00000
      4       3.7746      2.00000
      5       9.0250      2.04604
      6      10.2566      0.00000
      7      10.9178      0.00000
      8      11.7890      0.00000
      9      13.2447      0.00000
     10      21.0534      0.00000
     11      22.2146      0.00000
     12      23.2137      0.00000
     13      27.7066      0.00000
     14      31.3177      0.00000
     15      34.2483      0.00000
     16      40.2053      0.00000
     17      42.0484      0.00000
     18      43.6085      0.00000
     19      44.1697      0.00000
     20      45.4388      0.00000

 k-point   118 :      -0.3333    0.4000    0.2000
  band No.  band energies     occupation 
      1      -6.1918      2.00000
      2       2.5240      2.00000
      3       3.2229      2.00000
      4       3.6953      2.00000
      5       9.4861      1.99237
      6       9.9076      0.00000
      7      10.8940      0.00000
      8      12.0585      0.00000
      9      12.8927      0.00000
     10      21.3154      0.00000
     11      22.1928      0.00000
     12      23.3179      0.00000
     13      27.3022      0.00000
     14      32.1289      0.00000
     15      33.2453      0.00000
     16      39.9588      0.00000
     17      42.7383      0.00000
     18      43.3223      0.00000
     19      44.6754      0.00000
     20      47.0734      0.00000

 k-point   119 :      -0.3333    0.4667    0.2000
  band No.  band energies     occupation 
      1      -6.2773      2.00000
      2       2.8380      2.00000
      3       3.4444      2.00000
      4       3.6531      2.00000
      5       9.0288      2.00000
      6      10.2336      0.00000
      7      10.8690      0.00000
      8      11.7700      0.00000
      9      12.6296      0.00000
     10      21.8339      0.00000
     11      22.3355      0.00000
     12      22.8330      0.00000
     13      27.4438      0.00000
     14      31.8714      0.00000
     15      33.6458      0.00000
     16      39.8129      0.00000
     17      43.1590      0.00000
     18      43.6474      0.00000
     19      46.4289      0.00000
     20      46.4622      0.00000

 k-point   120 :      -0.2667    0.4667    0.2000
  band No.  band energies     occupation 
      1      -6.2270      2.00000
      2       3.0103      2.00000
      3       3.0822      2.00000
      4       3.5849      2.00000
      5       9.5003      1.98644
      6       9.9067      0.00000
      7      10.8702      0.00000
      8      11.9286      0.00000
      9      12.5998      0.00000
     10      21.9984      0.00000
     11      22.0042      0.00000
     12      23.1993      0.00000
     13      27.0869      0.00000
     14      32.5011      0.00000
     15      32.8937      0.00000
     16      39.7658      0.00000
     17      43.1895      0.00000
     18      43.5213      0.00000
     19      46.4602      0.00000
     20      46.8356      0.00000


--------------------------------------------------------------------------------------------------------


 soft charge-density along one line, spin component           1
         0         1         2         3         4         5         6         7         8         9
x     7.9856    0.0000   -2.3747   -0.0000    0.2373    0.0000    0.0594    0.0000   -0.0351    0.0000
x     0.0089   -0.0000   -0.0013   -0.0000    0.0001    0.0000   -0.0000    0.0000   -0.0000    0.0000
x    -0.0000   -0.0000    0.0000    0.0000    0.0000    0.0000
y     7.9856    0.0000   -2.3747   -0.0000    0.2373    0.0000    0.0594    0.0000   -0.0351    0.0000
y     0.0089   -0.0000   -0.0013   -0.0000    0.0001    0.0000   -0.0000    0.0000   -0.0000    0.0000
y    -0.0000   -0.0000    0.0000    0.0000    0.0000    0.0000
z     7.9856    0.0000   -2.3747   -0.0000    0.2373    0.0000    0.0594    0.0000   -0.0351    0.0000
z     0.0089   -0.0000   -0.0013   -0.0000    0.0001    0.0000   -0.0000    0.0000   -0.0000    0.0000
z    -0.0000   -0.0000    0.0000    0.0000    0.0000    0.0000
 total charge-density along one line
x    10.0000    0.0000   -1.3803   -0.0000    0.6336   -0.0000    0.0193    0.0000   -0.0181   -0.0000
x     0.0084    0.0000   -0.0017   -0.0000   -0.0002    0.0000    0.0001   -0.0000    0.0000    0.0000
x     0.0000    0.0000   -0.0000   -0.0000   -0.0000    0.0000   -0.0000   -0.0000    0.0000    0.0000
x    -0.0000    0.0000   -0.0000   -0.0000   -0.0000    0.0000    0.0000    0.0000    0.0000    0.0000
x     0.0000   -0.0000   -0.0000   -0.0000   -0.0000    0.0000   -0.0000    0.0000    0.0000    0.0000
y    10.0000    0.0000   -1.3803   -0.0000    0.6336    0.0000    0.0193   -0.0000   -0.0181    0.0000
y     0.0084    0.0000   -0.0017   -0.0000   -0.0002    0.0000    0.0001    0.0000    0.0000   -0.0000
y     0.0000    0.0000   -0.0000    0.0000   -0.0000   -0.0000   -0.0000    0.0000    0.0000   -0.0000
y    -0.0000    0.0000   -0.0000   -0.0000   -0.0000    0.0000    0.0000   -0.0000    0.0000    0.0000
y     0.0000    0.0000   -0.0000   -0.0000   -0.0000    0.0000   -0.0000   -0.0000    0.0000   -0.0000
z    10.0000    0.0000   -1.3803   -0.0000    0.6336    0.0000    0.0193   -0.0000   -0.0181    0.0000
z     0.0084   -0.0000   -0.0017    0.0000   -0.0002    0.0000    0.0001    0.0000    0.0000   -0.0000
z     0.0000    0.0000   -0.0000    0.0000   -0.0000    0.0000   -0.0000    0.0000    0.0000    0.0000
z    -0.0000    0.0000   -0.0000    0.0000   -0.0000    0.0000    0.0000   -0.0000    0.0000   -0.0000
z     0.0000    0.0000   -0.0000    0.0000   -0.0000    0.0000   -0.0000   -0.0000    0.0000   -0.0000
 
 pseudopotential strength for first ion, spin component:           1
 -0.333  -0.000   0.000  -0.000   0.000  -1.375   0.000  -0.000
 -0.000  -0.333  -0.000  -0.000   0.000   0.000  -1.375   0.000
  0.000  -0.000  -0.382  -0.000   0.000  -0.000   0.000  -1.363
 -0.000  -0.000  -0.000  -0.333  -0.000   0.000   0.000   0.000
  0.000   0.000   0.000  -0.000  -0.382  -0.000  -0.000  -0.000
 -1.375   0.000  -0.000   0.000  -0.000   0.931  -0.000   0.000
  0.000  -1.375   0.000   0.000  -0.000  -0.000   0.931  -0.000
 -0.000   0.000  -1.363   0.000  -0.000   0.000  -0.000   0.929
  0.000   0.000   0.000  -1.375   0.000  -0.000  -0.000  -0.000
 -0.000  -0.000  -0.000   0.000  -1.363   0.000   0.000   0.000
  0.000   0.000   0.000   0.000   0.000   0.000   0.000  -0.000
  0.000   0.000  -0.000   0.000   0.000  -0.000  -0.000  -0.000
 -0.000   0.000  -0.000   0.000  -0.000   0.000  -0.000   0.000
  0.000   0.000   0.000  -0.000  -0.000   0.000  -0.000  -0.000
  0.000   0.000   0.000   0.000  -0.000  -0.000   0.000  -0.000
 -0.000   0.000  -0.000   0.000  -0.000   0.000  -0.000   0.000
  0.000   0.000   0.000  -0.000  -0.000  -0.000  -0.000  -0.000
  0.000   0.000   0.000   0.000  -0.000  -0.000  -0.000  -0.000
 total augmentation occupancy for first ion, spin component:           1
  0.977   0.000  -0.000   0.000  -0.000   0.422   0.000  -0.000   0.000   0.000  -0.000  -0.000   0.000   0.000   0.000   0.000
  0.000   0.977  -0.000   0.000   0.000   0.000   0.422   0.000  -0.000   0.000  -0.000  -0.000   0.000   0.000   0.000   0.000
 -0.000  -0.000   1.067   0.000   0.000   0.000   0.000   1.133   0.000   0.000  -0.000   0.000   0.000   0.000   0.000   0.000
  0.000  -0.000  -0.000   0.977   0.000  -0.000   0.000   0.000   0.422  -0.000   0.000   0.000   0.000   0.000   0.000   0.000
 -0.000   0.000   0.000   0.000   1.067   0.000   0.000   0.000   0.000   1.133   0.000   0.000   0.000   0.000   0.000   0.000
  0.422   0.000  -0.000   0.000   0.000   0.496  -0.000   0.000  -0.000  -0.000  -0.000   0.000   0.000   0.000   0.000   0.000
 -0.000   0.422   0.000   0.000   0.000   0.000   0.496  -0.000  -0.000  -0.000   0.000  -0.000   0.000   0.000   0.000   0.000
  0.000   0.000   1.133  -0.000   0.000  -0.000   0.000   1.455   0.000  -0.000   0.000   0.000   0.000   0.000   0.000   0.000
 -0.000   0.000   0.000   0.422   0.000  -0.000  -0.000   0.000   0.496  -0.000  -0.000   0.000   0.000   0.000   0.000   0.000
  0.000  -0.000   0.000   0.000   1.133  -0.000   0.000   0.000   0.000   1.455   0.000   0.000   0.000   0.000   0.000   0.000
 -0.000  -0.000  -0.000   0.000   0.000  -0.000   0.000   0.000   0.000   0.000   1.359   0.224   0.000   0.000   0.000   0.000
 -0.000   0.000   0.000   0.000   0.000   0.000  -0.000   0.000   0.000   0.000   0.224   0.052   0.000   0.000   0.000   0.000
  0.000   0.000   0.000   0.000   0.000   0.000   0.000   0.000   0.000   0.000   0.000   0.000   0.446  -0.000  -0.000   0.044
  0.000   0.000   0.000   0.000   0.000   0.000   0.000   0.000   0.000   0.000   0.000   0.000  -0.000   0.446   0.000   0.000
  0.000   0.000   0.000   0.000   0.000   0.000   0.000   0.000   0.000   0.000   0.000   0.000  -0.000   0.000   0.446  -0.000
  0.000   0.000   0.000   0.000   0.000   0.000   0.000   0.000   0.000   0.000   0.000   0.000   0.044  -0.000   0.000   0.006
  0.000   0.000   0.000   0.000   0.000   0.000   0.000   0.000   0.000   0.000   0.000   0.000   0.000   0.044   0.000  -0.000
  0.000   0.000   0.000   0.000   0.000   0.000   0.000   0.000   0.000   0.000   0.000   0.000  -0.000   0.000   0.044  -0.000


------------------------ aborting loop because EDIFF is reached ----------------------------------------


    CHARGE:  cpu time    0.2013: real time    0.2014
    FORLOC:  cpu time    0.0072: real time    0.0073
    FORNL :  cpu time    0.2837: real time    0.2839
    STRESS:  cpu time    0.7016: real time    0.7024
    FORCOR:  cpu time    0.1655: real time    0.1656
    FORHAR:  cpu time    0.0135: real time    0.0135
    MIXING:  cpu time    0.0022: real time    0.0022
    OFIELD:  cpu time    0.0000: real time    0.0000

  FORCE on cell =-STRESS in cart. coord.  units (eV):
  Direction    XX          YY          ZZ          XY          YZ          ZX
  --------------------------------------------------------------------------------------
  Alpha Z    49.51024    49.51024    49.51024
  Ewald    -167.26013  -167.26013  -167.26013     0.00000     0.00000    -0.00000
  Hartree    16.55373    16.55373    16.55373     0.00000     0.00000     0.00000
  E(xc)     -44.58680   -44.58680   -44.58680    -0.00000    -0.00000    -0.00000
  Local       0.82652     0.82652     0.82652     0.00000     0.00000     0.00000
  n-local   -12.67643   -13.63261    -8.27641     2.21599    -2.80032     1.83713
  augment    20.34604    20.34604    20.34604    -0.00000    -0.00000    -0.00000
  Kinetic   141.17843   141.16609   126.27226     1.76035    -5.36283     3.80759
  Fock        0.00000     0.00000     0.00000     0.00000     0.00000     0.00000
  -------------------------------------------------------------------------------------
  Total       0.06671     0.06671     0.06671     0.00000    -0.00000     0.00000
  in kB       6.33614     6.33614     6.33614     0.00000    -0.00000     0.00000
  external pressure =        6.34 kB  Pullay stress =        0.00 kB


 VOLUME and BASIS-vectors are now :
 -----------------------------------------------------------------------------
  energy-cutoff  :      500.00
  volume of cell :       16.87
      direct lattice vectors                 reciprocal lattice vectors
     0.000000000  2.035576500  2.035576500    -0.245630660  0.245630660  0.245630660
     2.035576500  0.000000000  2.035576500     0.245630660 -0.245630660  0.245630660
     2.035576500  2.035576500  0.000000000     0.245630660  0.245630660 -0.245630660

  length of vectors
     2.878739894  2.878739894  2.878739894     0.425444784  0.425444784  0.425444784


 FORCES acting on ions
    electron-ion (+dipol)            ewald-force                    non-local-force                 convergence-correction
 -----------------------------------------------------------------------------------------------
   0.360E-14 -.268E-14 -.402E-14   -.867E-15 -.411E-15 -.156E-14   0.165E-23 0.248E-23 0.248E-23   -.165E-14 0.349E-15 0.645E-16
   0.688E-13 0.500E-13 0.500E-13   0.982E-15 0.247E-15 0.128E-14   -.165E-23 0.827E-24 -.827E-24   -.958E-14 -.114E-13 -.905E-14
 -----------------------------------------------------------------------------------------------
   0.724E-13 0.473E-13 0.460E-13   0.115E-15 -.164E-15 -.275E-15   0.000E+00 0.331E-23 0.165E-23   -.112E-13 -.111E-13 -.898E-14
 
 
 POSITION                                       TOTAL-FORCE (eV/Angst)
 -----------------------------------------------------------------------------------
      0.00000      0.00000      0.00000         0.000000     -0.000000      0.000000
      2.03558      2.03558      2.03558        -0.000000      0.000000     -0.000000
 -----------------------------------------------------------------------------------
    total drift:                                0.000000      0.000000      0.000000


--------------------------------------------------------------------------------------------------------



  FREE ENERGIE OF THE ION-ELECTRON SYSTEM (eV)
  ---------------------------------------------------
  free  energy   TOTEN  =       -19.41026432 eV

  energy  without entropy=      -19.41026432  energy(sigma->0) =      -19.41026432
 


--------------------------------------------------------------------------------------------------------


    POTLOK:  cpu time    0.1832: real time    0.1834


--------------------------------------------------------------------------------------------------------




--------------------------------------------------------------------------------------------------------


  
 reached required accuracy - stopping structural energy minimisation
 writing wavefunctions
     LOOP+:  cpu time   71.3166: real time   71.4848
    4ORBIT:  cpu time    0.0001: real time    0.0019
 BZINTS: Fermi energy:  9.539718; 10.000000 electrons
         Band energy:  24.744331;  BLOECHL correction: -0.025791

 total amount of memory used by VASP on root node    70376. kBytes
========================================================================

   base      :      30000. kBytes
   nonl-proj :      15358. kBytes
   grid      :       6939. kBytes
   one-center:         31. kBytes
   wavefun   :      18048. kBytes
 
  
  
 General timing and accounting informations for this job:
 ========================================================
  
                  Total CPU time used (sec):       72.320
                            User time (sec):       71.847
                          System time (sec):        0.473
                         Elapsed time (sec):       72.724
  
                   Maximum memory used (kb):    77811712.
                   Average memory used (kb):           0.
  
                          Minor page faults:        44479
                          Major page faults:         1141
                 Voluntary context switches:           10
