   2   2   1   0
  0.8430375E+01  0.2878264E-09  0.2878264E-09  0.2878264E-09  0.2000000E-15
  1.000000000000000E-004
  CAR 
 unknown system                          
    113.18024421    -60.09713307 5000     12.82543480      1.00000000
    -60.097  0.0000E+00  0.0000E+00
    -60.062  0.0000E+00  0.0000E+00
    -60.028  0.0000E+00  0.0000E+00
    -59.993  0.0000E+00  0.0000E+00
    -59.958  0.0000E+00  0.0000E+00
    -59.924  0.0000E+00  0.0000E+00
    -59.889  0.0000E+00  0.0000E+00
    -59.854  0.0000E+00  0.0000E+00
    -59.820  0.0000E+00  0.0000E+00
    -59.785  0.0000E+00  0.0000E+00
    -59.751  0.0000E+00  0.0000E+00
    -59.716  0.0000E+00  0.0000E+00
    -59.681  0.0000E+00  0.0000E+00
    -59.647  0.0000E+00  0.0000E+00
    -59.612  0.0000E+00  0.0000E+00
    -59.577  0.0000E+00  0.0000E+00
    -59.543  0.0000E+00  0.0000E+00
    -59.508  0.0000E+00  0.0000E+00
    -59.473  0.0000E+00  0.0000E+00
    -59.439  0.0000E+00  0.0000E+00
    -59.404  0.0000E+00  0.0000E+00
    -59.369  0.0000E+00  0.0000E+00
    -59.335  0.0000E+00  0.0000E+00
    -59.300  0.0000E+00  0.0000E+00
    -59.265  0.0000E+00  0.0000E+00
    -59.231  0.0000E+00  0.0000E+00
    -59.196  0.0000E+00  0.0000E+00
    -59.161  0.0000E+00  0.0000E+00
    -59.127  0.0000E+00  0.0000E+00
    -59.092  0.0000E+00  0.0000E+00
    -59.057  0.0000E+00  0.0000E+00
    -59.023  0.0000E+00  0.0000E+00
    -58.988  0.0000E+00  0.0000E+00
    -58.953  0.0000E+00  0.0000E+00
    -58.919  0.0000E+00  0.0000E+00
    -58.884  0.0000E+00  0.0000E+00
    -58.849  0.0000E+00  0.0000E+00
    -58.815  0.0000E+00  0.0000E+00
    -58.780  0.0000E+00  0.0000E+00
    -58.745  0.0000E+00  0.0000E+00
    -58.711  0.0000E+00  0.0000E+00
    -58.676  0.0000E+00  0.0000E+00
    -58.641  0.0000E+00  0.0000E+00
    -58.607  0.0000E+00  0.0000E+00
    -58.572  0.0000E+00  0.0000E+00
    -58.537  0.0000E+00  0.0000E+00
    -58.503  0.0000E+00  0.0000E+00
    -58.468  0.0000E+00  0.0000E+00
    -58.433  0.0000E+00  0.0000E+00
    -58.399  0.0000E+00  0.0000E+00
    -58.364  0.0000E+00  0.0000E+00
    -58.329  0.0000E+00  0.0000E+00
    -58.295  0.0000E+00  0.0000E+00
    -58.260  0.0000E+00  0.0000E+00
    -58.225  0.0000E+00  0.0000E+00
    -58.191  0.0000E+00  0.0000E+00
    -58.156  0.0000E+00  0.0000E+00
    -58.121  0.0000E+00  0.0000E+00
    -58.087  0.0000E+00  0.0000E+00
    -58.052  0.0000E+00  0.0000E+00
    -58.017  0.0000E+00  0.0000E+00
    -57.983  0.0000E+00  0.0000E+00
    -57.948  0.0000E+00  0.0000E+00
    -57.913  0.0000E+00  0.0000E+00
    -57.879  0.0000E+00  0.0000E+00
    -57.844  0.0000E+00  0.0000E+00
    -57.809  0.0000E+00  0.0000E+00
    -57.775  0.0000E+00  0.0000E+00
    -57.740  0.0000E+00  0.0000E+00
    -57.705  0.0000E+00  0.0000E+00
    -57.671  0.0000E+00  0.0000E+00
    -57.636  0.0000E+00  0.0000E+00
    -57.601  0.0000E+00  0.0000E+00
    -57.567  0.0000E+00  0.0000E+00
    -57.532  0.0000E+00  0.0000E+00
    -57.497  0.0000E+00  0.0000E+00
    -57.463  0.0000E+00  0.0000E+00
    -57.428  0.0000E+00  0.0000E+00
    -57.393  0.0000E+00  0.0000E+00
    -57.359  0.0000E+00  0.0000E+00
    -57.324  0.0000E+00  0.0000E+00
    -57.289  0.0000E+00  0.0000E+00
    -57.255  0.0000E+00  0.0000E+00
    -57.220  0.0000E+00  0.0000E+00
    -57.185  0.0000E+00  0.0000E+00
    -57.151  0.0000E+00  0.0000E+00
    -57.116  0.0000E+00  0.0000E+00
    -57.082  0.0000E+00  0.0000E+00
    -57.047  0.0000E+00  0.0000E+00
    -57.012  0.0000E+00  0.0000E+00
    -56.978  0.0000E+00  0.0000E+00
    -56.943  0.0000E+00  0.0000E+00
    -56.908  0.0000E+00  0.0000E+00
    -56.874  0.0000E+00  0.0000E+00
    -56.839  0.0000E+00  0.0000E+00
    -56.804  0.0000E+00  0.0000E+00
    -56.770  0.0000E+00  0.0000E+00
    -56.735  0.0000E+00  0.0000E+00
    -56.700  0.0000E+00  0.0000E+00
    -56.666  0.0000E+00  0.0000E+00
    -56.631  0.0000E+00  0.0000E+00
    -56.596  0.0000E+00  0.0000E+00
    -56.562  0.0000E+00  0.0000E+00
    -56.527  0.0000E+00  0.0000E+00
    -56.492  0.0000E+00  0.0000E+00
    -56.458  0.0000E+00  0.0000E+00
    -56.423  0.0000E+00  0.0000E+00
    -56.388  0.0000E+00  0.0000E+00
    -56.354  0.0000E+00  0.0000E+00
    -56.319  0.0000E+00  0.0000E+00
    -56.284  0.0000E+00  0.0000E+00
    -56.250  0.0000E+00  0.0000E+00
    -56.215  0.0000E+00  0.0000E+00
    -56.180  0.0000E+00  0.0000E+00
    -56.146  0.0000E+00  0.0000E+00
    -56.111  0.0000E+00  0.0000E+00
    -56.076  0.0000E+00  0.0000E+00
    -56.042  0.0000E+00  0.0000E+00
    -56.007  0.0000E+00  0.0000E+00
    -55.972  0.0000E+00  0.0000E+00
    -55.938  0.0000E+00  0.0000E+00
    -55.903  0.0000E+00  0.0000E+00
    -55.868  0.0000E+00  0.0000E+00
    -55.834  0.0000E+00  0.0000E+00
    -55.799  0.0000E+00  0.0000E+00
    -55.764  0.0000E+00  0.0000E+00
    -55.730  0.0000E+00  0.0000E+00
    -55.695  0.0000E+00  0.0000E+00
    -55.660  0.0000E+00  0.0000E+00
    -55.626  0.0000E+00  0.0000E+00
    -55.591  0.0000E+00  0.0000E+00
    -55.556  0.0000E+00  0.0000E+00
    -55.522  0.0000E+00  0.0000E+00
    -55.487  0.0000E+00  0.0000E+00
    -55.452  0.0000E+00  0.0000E+00
    -55.418  0.0000E+00  0.0000E+00
    -55.383  0.0000E+00  0.0000E+00
    -55.348  0.0000E+00  0.0000E+00
    -55.314  0.0000E+00  0.0000E+00
    -55.279  0.0000E+00  0.0000E+00
    -55.244  0.0000E+00  0.0000E+00
    -55.210  0.0000E+00  0.0000E+00
    -55.175  0.0000E+00  0.0000E+00
    -55.140  0.0000E+00  0.0000E+00
    -55.106  0.0000E+00  0.0000E+00
    -55.071  0.0000E+00  0.0000E+00
    -55.036  0.0000E+00  0.0000E+00
    -55.002  0.0000E+00  0.0000E+00
    -54.967  0.0000E+00  0.0000E+00
    -54.932  0.0000E+00  0.0000E+00
    -54.898  0.0000E+00  0.0000E+00
    -54.863  0.0000E+00  0.0000E+00
    -54.828  0.0000E+00  0.0000E+00
    -54.794  0.0000E+00  0.0000E+00
    -54.759  0.0000E+00  0.0000E+00
    -54.724  0.0000E+00  0.0000E+00
    -54.690  0.0000E+00  0.0000E+00
    -54.655  0.0000E+00  0.0000E+00
    -54.620  0.0000E+00  0.0000E+00
    -54.586  0.0000E+00  0.0000E+00
    -54.551  0.0000E+00  0.0000E+00
    -54.516  0.0000E+00  0.0000E+00
    -54.482  0.0000E+00  0.0000E+00
    -54.447  0.0000E+00  0.0000E+00
    -54.412  0.0000E+00  0.0000E+00
    -54.378  0.0000E+00  0.0000E+00
    -54.343  0.0000E+00  0.0000E+00
    -54.309  0.0000E+00  0.0000E+00
    -54.274  0.0000E+00  0.0000E+00
    -54.239  0.0000E+00  0.0000E+00
    -54.205  0.0000E+00  0.0000E+00
    -54.170  0.0000E+00  0.0000E+00
    -54.135  0.0000E+00  0.0000E+00
    -54.101  0.0000E+00  0.0000E+00
    -54.066  0.0000E+00  0.0000E+00
    -54.031  0.0000E+00  0.0000E+00
    -53.997  0.0000E+00  0.0000E+00
    -53.962  0.0000E+00  0.0000E+00
    -53.927  0.0000E+00  0.0000E+00
    -53.893  0.0000E+00  0.0000E+00
    -53.858  0.0000E+00  0.0000E+00
    -53.823  0.0000E+00  0.0000E+00
    -53.789  0.0000E+00  0.0000E+00
    -53.754  0.0000E+00  0.0000E+00
    -53.719  0.0000E+00  0.0000E+00
    -53.685  0.0000E+00  0.0000E+00
    -53.650  0.0000E+00  0.0000E+00
    -53.615  0.0000E+00  0.0000E+00
    -53.581  0.0000E+00  0.0000E+00
    -53.546  0.0000E+00  0.0000E+00
    -53.511  0.0000E+00  0.0000E+00
    -53.477  0.0000E+00  0.0000E+00
    -53.442  0.0000E+00  0.0000E+00
    -53.407  0.0000E+00  0.0000E+00
    -53.373  0.0000E+00  0.0000E+00
    -53.338  0.0000E+00  0.0000E+00
    -53.303  0.0000E+00  0.0000E+00
    -53.269  0.0000E+00  0.0000E+00
    -53.234  0.0000E+00  0.0000E+00
    -53.199  0.0000E+00  0.0000E+00
    -53.165  0.0000E+00  0.0000E+00
    -53.130  0.0000E+00  0.0000E+00
    -53.095  0.0000E+00  0.0000E+00
    -53.061  0.0000E+00  0.0000E+00
    -53.026  0.0000E+00  0.0000E+00
    -52.991  0.0000E+00  0.0000E+00
    -52.957  0.0000E+00  0.0000E+00
    -52.922  0.0000E+00  0.0000E+00
    -52.887  0.0000E+00  0.0000E+00
    -52.853  0.0000E+00  0.0000E+00
    -52.818  0.0000E+00  0.0000E+00
    -52.783  0.0000E+00  0.0000E+00
    -52.749  0.0000E+00  0.0000E+00
    -52.714  0.0000E+00  0.0000E+00
    -52.679  0.0000E+00  0.0000E+00
    -52.645  0.0000E+00  0.0000E+00
    -52.610  0.0000E+00  0.0000E+00
    -52.575  0.0000E+00  0.0000E+00
    -52.541  0.0000E+00  0.0000E+00
    -52.506  0.0000E+00  0.0000E+00
    -52.471  0.0000E+00  0.0000E+00
    -52.437  0.0000E+00  0.0000E+00
    -52.402  0.0000E+00  0.0000E+00
    -52.367  0.0000E+00  0.0000E+00
    -52.333  0.0000E+00  0.0000E+00
    -52.298  0.0000E+00  0.0000E+00
    -52.263  0.0000E+00  0.0000E+00
    -52.229  0.0000E+00  0.0000E+00
    -52.194  0.4149E+01  0.6580E-01
    -52.159  0.1018E+02  0.3003E+00
    -52.125  0.3538E+02  0.9909E+00
    -52.090  0.0000E+00  0.2000E+01
    -52.055  0.0000E+00  0.2000E+01
    -52.021  0.0000E+00  0.2000E+01
    -51.986  0.0000E+00  0.2000E+01
    -51.951  0.0000E+00  0.2000E+01
    -51.917  0.0000E+00  0.2000E+01
    -51.882  0.0000E+00  0.2000E+01
    -51.847  0.0000E+00  0.2000E+01
    -51.813  0.0000E+00  0.2000E+01
    -51.778  0.0000E+00  0.2000E+01
    -51.743  0.0000E+00  0.2000E+01
    -51.709  0.0000E+00  0.2000E+01
    -51.674  0.0000E+00  0.2000E+01
    -51.640  0.0000E+00  0.2000E+01
    -51.605  0.0000E+00  0.2000E+01
    -51.570  0.0000E+00  0.2000E+01
    -51.536  0.0000E+00  0.2000E+01
    -51.501  0.0000E+00  0.2000E+01
    -51.466  0.0000E+00  0.2000E+01
    -51.432  0.0000E+00  0.2000E+01
    -51.397  0.0000E+00  0.2000E+01
    -51.362  0.0000E+00  0.2000E+01
    -51.328  0.0000E+00  0.2000E+01
    -51.293  0.0000E+00  0.2000E+01
    -51.258  0.0000E+00  0.2000E+01
    -51.224  0.0000E+00  0.2000E+01
    -51.189  0.0000E+00  0.2000E+01
    -51.154  0.0000E+00  0.2000E+01
    -51.120  0.0000E+00  0.2000E+01
    -51.085  0.0000E+00  0.2000E+01
    -51.050  0.0000E+00  0.2000E+01
    -51.016  0.0000E+00  0.2000E+01
    -50.981  0.0000E+00  0.2000E+01
    -50.946  0.0000E+00  0.2000E+01
    -50.912  0.0000E+00  0.2000E+01
    -50.877  0.0000E+00  0.2000E+01
    -50.842  0.0000E+00  0.2000E+01
    -50.808  0.0000E+00  0.2000E+01
    -50.773  0.0000E+00  0.2000E+01
    -50.738  0.0000E+00  0.2000E+01
    -50.704  0.0000E+00  0.2000E+01
    -50.669  0.0000E+00  0.2000E+01
    -50.634  0.0000E+00  0.2000E+01
    -50.600  0.0000E+00  0.2000E+01
    -50.565  0.0000E+00  0.2000E+01
    -50.530  0.0000E+00  0.2000E+01
    -50.496  0.0000E+00  0.2000E+01
    -50.461  0.0000E+00  0.2000E+01
    -50.426  0.0000E+00  0.2000E+01
    -50.392  0.0000E+00  0.2000E+01
    -50.357  0.0000E+00  0.2000E+01
    -50.322  0.0000E+00  0.2000E+01
    -50.288  0.0000E+00  0.2000E+01
    -50.253  0.0000E+00  0.2000E+01
    -50.218  0.0000E+00  0.2000E+01
    -50.184  0.0000E+00  0.2000E+01
    -50.149  0.0000E+00  0.2000E+01
    -50.114  0.0000E+00  0.2000E+01
    -50.080  0.0000E+00  0.2000E+01
    -50.045  0.0000E+00  0.2000E+01
    -50.010  0.0000E+00  0.2000E+01
    -49.976  0.0000E+00  0.2000E+01
    -49.941  0.0000E+00  0.2000E+01
    -49.906  0.0000E+00  0.2000E+01
    -49.872  0.0000E+00  0.2000E+01
    -49.837  0.0000E+00  0.2000E+01
    -49.802  0.0000E+00  0.2000E+01
    -49.768  0.0000E+00  0.2000E+01
    -49.733  0.0000E+00  0.2000E+01
    -49.698  0.0000E+00  0.2000E+01
    -49.664  0.0000E+00  0.2000E+01
    -49.629  0.0000E+00  0.2000E+01
    -49.594  0.0000E+00  0.2000E+01
    -49.560  0.0000E+00  0.2000E+01
    -49.525  0.0000E+00  0.2000E+01
    -49.490  0.0000E+00  0.2000E+01
    -49.456  0.0000E+00  0.2000E+01
    -49.421  0.0000E+00  0.2000E+01
    -49.386  0.0000E+00  0.2000E+01
    -49.352  0.0000E+00  0.2000E+01
    -49.317  0.0000E+00  0.2000E+01
    -49.282  0.0000E+00  0.2000E+01
    -49.248  0.0000E+00  0.2000E+01
    -49.213  0.0000E+00  0.2000E+01
    -49.178  0.0000E+00  0.2000E+01
    -49.144  0.0000E+00  0.2000E+01
    -49.109  0.0000E+00  0.2000E+01
    -49.074  0.0000E+00  0.2000E+01
    -49.040  0.0000E+00  0.2000E+01
    -49.005  0.0000E+00  0.2000E+01
    -48.971  0.0000E+00  0.2000E+01
    -48.936  0.0000E+00  0.2000E+01
    -48.901  0.0000E+00  0.2000E+01
    -48.867  0.0000E+00  0.2000E+01
    -48.832  0.0000E+00  0.2000E+01
    -48.797  0.0000E+00  0.2000E+01
    -48.763  0.0000E+00  0.2000E+01
    -48.728  0.0000E+00  0.2000E+01
    -48.693  0.0000E+00  0.2000E+01
    -48.659  0.0000E+00  0.2000E+01
    -48.624  0.0000E+00  0.2000E+01
    -48.589  0.0000E+00  0.2000E+01
    -48.555  0.0000E+00  0.2000E+01
    -48.520  0.0000E+00  0.2000E+01
    -48.485  0.0000E+00  0.2000E+01
    -48.451  0.0000E+00  0.2000E+01
    -48.416  0.0000E+00  0.2000E+01
    -48.381  0.0000E+00  0.2000E+01
    -48.347  0.0000E+00  0.2000E+01
    -48.312  0.0000E+00  0.2000E+01
    -48.277  0.0000E+00  0.2000E+01
    -48.243  0.0000E+00  0.2000E+01
    -48.208  0.0000E+00  0.2000E+01
    -48.173  0.0000E+00  0.2000E+01
    -48.139  0.0000E+00  0.2000E+01
    -48.104  0.0000E+00  0.2000E+01
    -48.069  0.0000E+00  0.2000E+01
    -48.035  0.0000E+00  0.2000E+01
    -48.000  0.0000E+00  0.2000E+01
    -47.965  0.0000E+00  0.2000E+01
    -47.931  0.0000E+00  0.2000E+01
    -47.896  0.0000E+00  0.2000E+01
    -47.861  0.0000E+00  0.2000E+01
    -47.827  0.0000E+00  0.2000E+01
    -47.792  0.0000E+00  0.2000E+01
    -47.757  0.0000E+00  0.2000E+01
    -47.723  0.0000E+00  0.2000E+01
    -47.688  0.0000E+00  0.2000E+01
    -47.653  0.0000E+00  0.2000E+01
    -47.619  0.0000E+00  0.2000E+01
    -47.584  0.0000E+00  0.2000E+01
    -47.549  0.0000E+00  0.2000E+01
    -47.515  0.0000E+00  0.2000E+01
    -47.480  0.0000E+00  0.2000E+01
    -47.445  0.0000E+00  0.2000E+01
    -47.411  0.0000E+00  0.2000E+01
    -47.376  0.0000E+00  0.2000E+01
    -47.341  0.0000E+00  0.2000E+01
    -47.307  0.0000E+00  0.2000E+01
    -47.272  0.0000E+00  0.2000E+01
    -47.237  0.0000E+00  0.2000E+01
    -47.203  0.0000E+00  0.2000E+01
    -47.168  0.0000E+00  0.2000E+01
    -47.133  0.0000E+00  0.2000E+01
    -47.099  0.0000E+00  0.2000E+01
    -47.064  0.0000E+00  0.2000E+01
    -47.029  0.0000E+00  0.2000E+01
    -46.995  0.0000E+00  0.2000E+01
    -46.960  0.0000E+00  0.2000E+01
    -46.925  0.0000E+00  0.2000E+01
    -46.891  0.0000E+00  0.2000E+01
    -46.856  0.0000E+00  0.2000E+01
    -46.821  0.0000E+00  0.2000E+01
    -46.787  0.0000E+00  0.2000E+01
    -46.752  0.0000E+00  0.2000E+01
    -46.717  0.0000E+00  0.2000E+01
    -46.683  0.0000E+00  0.2000E+01
    -46.648  0.0000E+00  0.2000E+01
    -46.613  0.0000E+00  0.2000E+01
    -46.579  0.0000E+00  0.2000E+01
    -46.544  0.0000E+00  0.2000E+01
    -46.509  0.0000E+00  0.2000E+01
    -46.475  0.0000E+00  0.2000E+01
    -46.440  0.0000E+00  0.2000E+01
    -46.405  0.0000E+00  0.2000E+01
    -46.371  0.0000E+00  0.2000E+01
    -46.336  0.0000E+00  0.2000E+01
    -46.301  0.0000E+00  0.2000E+01
    -46.267  0.0000E+00  0.2000E+01
    -46.232  0.0000E+00  0.2000E+01
    -46.198  0.0000E+00  0.2000E+01
    -46.163  0.0000E+00  0.2000E+01
    -46.128  0.0000E+00  0.2000E+01
    -46.094  0.0000E+00  0.2000E+01
    -46.059  0.0000E+00  0.2000E+01
    -46.024  0.0000E+00  0.2000E+01
    -45.990  0.0000E+00  0.2000E+01
    -45.955  0.0000E+00  0.2000E+01
    -45.920  0.0000E+00  0.2000E+01
    -45.886  0.0000E+00  0.2000E+01
    -45.851  0.0000E+00  0.2000E+01
    -45.816  0.0000E+00  0.2000E+01
    -45.782  0.0000E+00  0.2000E+01
    -45.747  0.0000E+00  0.2000E+01
    -45.712  0.0000E+00  0.2000E+01
    -45.678  0.0000E+00  0.2000E+01
    -45.643  0.0000E+00  0.2000E+01
    -45.608  0.0000E+00  0.2000E+01
    -45.574  0.0000E+00  0.2000E+01
    -45.539  0.0000E+00  0.2000E+01
    -45.504  0.0000E+00  0.2000E+01
    -45.470  0.0000E+00  0.2000E+01
    -45.435  0.0000E+00  0.2000E+01
    -45.400  0.0000E+00  0.2000E+01
    -45.366  0.0000E+00  0.2000E+01
    -45.331  0.0000E+00  0.2000E+01
    -45.296  0.0000E+00  0.2000E+01
    -45.262  0.0000E+00  0.2000E+01
    -45.227  0.0000E+00  0.2000E+01
    -45.192  0.0000E+00  0.2000E+01
    -45.158  0.0000E+00  0.2000E+01
    -45.123  0.0000E+00  0.2000E+01
    -45.088  0.0000E+00  0.2000E+01
    -45.054  0.0000E+00  0.2000E+01
    -45.019  0.0000E+00  0.2000E+01
    -44.984  0.0000E+00  0.2000E+01
    -44.950  0.0000E+00  0.2000E+01
    -44.915  0.0000E+00  0.2000E+01
    -44.880  0.0000E+00  0.2000E+01
    -44.846  0.0000E+00  0.2000E+01
    -44.811  0.0000E+00  0.2000E+01
    -44.776  0.0000E+00  0.2000E+01
    -44.742  0.0000E+00  0.2000E+01
    -44.707  0.0000E+00  0.2000E+01
    -44.672  0.0000E+00  0.2000E+01
    -44.638  0.0000E+00  0.2000E+01
    -44.603  0.0000E+00  0.2000E+01
    -44.568  0.0000E+00  0.2000E+01
    -44.534  0.0000E+00  0.2000E+01
    -44.499  0.0000E+00  0.2000E+01
    -44.464  0.0000E+00  0.2000E+01
    -44.430  0.0000E+00  0.2000E+01
    -44.395  0.0000E+00  0.2000E+01
    -44.360  0.0000E+00  0.2000E+01
    -44.326  0.0000E+00  0.2000E+01
    -44.291  0.0000E+00  0.2000E+01
    -44.256  0.0000E+00  0.2000E+01
    -44.222  0.0000E+00  0.2000E+01
    -44.187  0.0000E+00  0.2000E+01
    -44.152  0.0000E+00  0.2000E+01
    -44.118  0.0000E+00  0.2000E+01
    -44.083  0.0000E+00  0.2000E+01
    -44.048  0.0000E+00  0.2000E+01
    -44.014  0.0000E+00  0.2000E+01
    -43.979  0.0000E+00  0.2000E+01
    -43.944  0.0000E+00  0.2000E+01
    -43.910  0.0000E+00  0.2000E+01
    -43.875  0.0000E+00  0.2000E+01
    -43.840  0.0000E+00  0.2000E+01
    -43.806  0.0000E+00  0.2000E+01
    -43.771  0.0000E+00  0.2000E+01
    -43.736  0.0000E+00  0.2000E+01
    -43.702  0.0000E+00  0.2000E+01
    -43.667  0.0000E+00  0.2000E+01
    -43.632  0.0000E+00  0.2000E+01
    -43.598  0.0000E+00  0.2000E+01
    -43.563  0.0000E+00  0.2000E+01
    -43.529  0.0000E+00  0.2000E+01
    -43.494  0.0000E+00  0.2000E+01
    -43.459  0.0000E+00  0.2000E+01
    -43.425  0.0000E+00  0.2000E+01
    -43.390  0.0000E+00  0.2000E+01
    -43.355  0.0000E+00  0.2000E+01
    -43.321  0.0000E+00  0.2000E+01
    -43.286  0.0000E+00  0.2000E+01
    -43.251  0.0000E+00  0.2000E+01
    -43.217  0.0000E+00  0.2000E+01
    -43.182  0.0000E+00  0.2000E+01
    -43.147  0.0000E+00  0.2000E+01
    -43.113  0.0000E+00  0.2000E+01
    -43.078  0.0000E+00  0.2000E+01
    -43.043  0.0000E+00  0.2000E+01
    -43.009  0.0000E+00  0.2000E+01
    -42.974  0.0000E+00  0.2000E+01
    -42.939  0.0000E+00  0.2000E+01
    -42.905  0.0000E+00  0.2000E+01
    -42.870  0.0000E+00  0.2000E+01
    -42.835  0.0000E+00  0.2000E+01
    -42.801  0.0000E+00  0.2000E+01
    -42.766  0.0000E+00  0.2000E+01
    -42.731  0.0000E+00  0.2000E+01
    -42.697  0.0000E+00  0.2000E+01
    -42.662  0.0000E+00  0.2000E+01
    -42.627  0.0000E+00  0.2000E+01
    -42.593  0.0000E+00  0.2000E+01
    -42.558  0.0000E+00  0.2000E+01
    -42.523  0.0000E+00  0.2000E+01
    -42.489  0.0000E+00  0.2000E+01
    -42.454  0.0000E+00  0.2000E+01
    -42.419  0.0000E+00  0.2000E+01
    -42.385  0.0000E+00  0.2000E+01
    -42.350  0.0000E+00  0.2000E+01
    -42.315  0.0000E+00  0.2000E+01
    -42.281  0.0000E+00  0.2000E+01
    -42.246  0.0000E+00  0.2000E+01
    -42.211  0.0000E+00  0.2000E+01
    -42.177  0.0000E+00  0.2000E+01
    -42.142  0.0000E+00  0.2000E+01
    -42.107  0.0000E+00  0.2000E+01
    -42.073  0.0000E+00  0.2000E+01
    -42.038  0.0000E+00  0.2000E+01
    -42.003  0.0000E+00  0.2000E+01
    -41.969  0.0000E+00  0.2000E+01
    -41.934  0.0000E+00  0.2000E+01
    -41.899  0.0000E+00  0.2000E+01
    -41.865  0.0000E+00  0.2000E+01
    -41.830  0.0000E+00  0.2000E+01
    -41.795  0.0000E+00  0.2000E+01
    -41.761  0.0000E+00  0.2000E+01
    -41.726  0.0000E+00  0.2000E+01
    -41.691  0.0000E+00  0.2000E+01
    -41.657  0.0000E+00  0.2000E+01
    -41.622  0.0000E+00  0.2000E+01
    -41.587  0.0000E+00  0.2000E+01
    -41.553  0.0000E+00  0.2000E+01
    -41.518  0.0000E+00  0.2000E+01
    -41.483  0.0000E+00  0.2000E+01
    -41.449  0.0000E+00  0.2000E+01
    -41.414  0.0000E+00  0.2000E+01
    -41.379  0.0000E+00  0.2000E+01
    -41.345  0.0000E+00  0.2000E+01
    -41.310  0.0000E+00  0.2000E+01
    -41.275  0.0000E+00  0.2000E+01
    -41.241  0.0000E+00  0.2000E+01
    -41.206  0.0000E+00  0.2000E+01
    -41.171  0.0000E+00  0.2000E+01
    -41.137  0.0000E+00  0.2000E+01
    -41.102  0.0000E+00  0.2000E+01
    -41.067  0.0000E+00  0.2000E+01
    -41.033  0.0000E+00  0.2000E+01
    -40.998  0.0000E+00  0.2000E+01
    -40.963  0.0000E+00  0.2000E+01
    -40.929  0.0000E+00  0.2000E+01
    -40.894  0.0000E+00  0.2000E+01
    -40.859  0.0000E+00  0.2000E+01
    -40.825  0.0000E+00  0.2000E+01
    -40.790  0.0000E+00  0.2000E+01
    -40.756  0.0000E+00  0.2000E+01
    -40.721  0.0000E+00  0.2000E+01
    -40.686  0.0000E+00  0.2000E+01
    -40.652  0.0000E+00  0.2000E+01
    -40.617  0.0000E+00  0.2000E+01
    -40.582  0.0000E+00  0.2000E+01
    -40.548  0.0000E+00  0.2000E+01
    -40.513  0.0000E+00  0.2000E+01
    -40.478  0.0000E+00  0.2000E+01
    -40.444  0.0000E+00  0.2000E+01
    -40.409  0.0000E+00  0.2000E+01
    -40.374  0.0000E+00  0.2000E+01
    -40.340  0.0000E+00  0.2000E+01
    -40.305  0.0000E+00  0.2000E+01
    -40.270  0.0000E+00  0.2000E+01
    -40.236  0.0000E+00  0.2000E+01
    -40.201  0.0000E+00  0.2000E+01
    -40.166  0.0000E+00  0.2000E+01
    -40.132  0.0000E+00  0.2000E+01
    -40.097  0.0000E+00  0.2000E+01
    -40.062  0.0000E+00  0.2000E+01
    -40.028  0.0000E+00  0.2000E+01
    -39.993  0.0000E+00  0.2000E+01
    -39.958  0.0000E+00  0.2000E+01
    -39.924  0.0000E+00  0.2000E+01
    -39.889  0.0000E+00  0.2000E+01
    -39.854  0.0000E+00  0.2000E+01
    -39.820  0.0000E+00  0.2000E+01
    -39.785  0.0000E+00  0.2000E+01
    -39.750  0.0000E+00  0.2000E+01
    -39.716  0.0000E+00  0.2000E+01
    -39.681  0.0000E+00  0.2000E+01
    -39.646  0.0000E+00  0.2000E+01
    -39.612  0.0000E+00  0.2000E+01
    -39.577  0.0000E+00  0.2000E+01
    -39.542  0.0000E+00  0.2000E+01
    -39.508  0.0000E+00  0.2000E+01
    -39.473  0.0000E+00  0.2000E+01
    -39.438  0.0000E+00  0.2000E+01
    -39.404  0.0000E+00  0.2000E+01
    -39.369  0.0000E+00  0.2000E+01
    -39.334  0.0000E+00  0.2000E+01
    -39.300  0.0000E+00  0.2000E+01
    -39.265  0.0000E+00  0.2000E+01
    -39.230  0.0000E+00  0.2000E+01
    -39.196  0.0000E+00  0.2000E+01
    -39.161  0.0000E+00  0.2000E+01
    -39.126  0.0000E+00  0.2000E+01
    -39.092  0.0000E+00  0.2000E+01
    -39.057  0.0000E+00  0.2000E+01
    -39.022  0.0000E+00  0.2000E+01
    -38.988  0.0000E+00  0.2000E+01
    -38.953  0.0000E+00  0.2000E+01
    -38.918  0.0000E+00  0.2000E+01
    -38.884  0.0000E+00  0.2000E+01
    -38.849  0.0000E+00  0.2000E+01
    -38.814  0.0000E+00  0.2000E+01
    -38.780  0.0000E+00  0.2000E+01
    -38.745  0.0000E+00  0.2000E+01
    -38.710  0.0000E+00  0.2000E+01
    -38.676  0.0000E+00  0.2000E+01
    -38.641  0.0000E+00  0.2000E+01
    -38.606  0.0000E+00  0.2000E+01
    -38.572  0.0000E+00  0.2000E+01
    -38.537  0.0000E+00  0.2000E+01
    -38.502  0.0000E+00  0.2000E+01
    -38.468  0.0000E+00  0.2000E+01
    -38.433  0.0000E+00  0.2000E+01
    -38.398  0.0000E+00  0.2000E+01
    -38.364  0.0000E+00  0.2000E+01
    -38.329  0.0000E+00  0.2000E+01
    -38.294  0.0000E+00  0.2000E+01
    -38.260  0.0000E+00  0.2000E+01
    -38.225  0.0000E+00  0.2000E+01
    -38.190  0.0000E+00  0.2000E+01
    -38.156  0.0000E+00  0.2000E+01
    -38.121  0.0000E+00  0.2000E+01
    -38.087  0.0000E+00  0.2000E+01
    -38.052  0.0000E+00  0.2000E+01
    -38.017  0.0000E+00  0.2000E+01
    -37.983  0.0000E+00  0.2000E+01
    -37.948  0.0000E+00  0.2000E+01
    -37.913  0.0000E+00  0.2000E+01
    -37.879  0.0000E+00  0.2000E+01
    -37.844  0.0000E+00  0.2000E+01
    -37.809  0.0000E+00  0.2000E+01
    -37.775  0.0000E+00  0.2000E+01
    -37.740  0.0000E+00  0.2000E+01
    -37.705  0.0000E+00  0.2000E+01
    -37.671  0.0000E+00  0.2000E+01
    -37.636  0.0000E+00  0.2000E+01
    -37.601  0.0000E+00  0.2000E+01
    -37.567  0.0000E+00  0.2000E+01
    -37.532  0.0000E+00  0.2000E+01
    -37.497  0.0000E+00  0.2000E+01
    -37.463  0.0000E+00  0.2000E+01
    -37.428  0.0000E+00  0.2000E+01
    -37.393  0.0000E+00  0.2000E+01
    -37.359  0.0000E+00  0.2000E+01
    -37.324  0.0000E+00  0.2000E+01
    -37.289  0.0000E+00  0.2000E+01
    -37.255  0.0000E+00  0.2000E+01
    -37.220  0.0000E+00  0.2000E+01
    -37.185  0.0000E+00  0.2000E+01
    -37.151  0.0000E+00  0.2000E+01
    -37.116  0.0000E+00  0.2000E+01
    -37.081  0.0000E+00  0.2000E+01
    -37.047  0.0000E+00  0.2000E+01
    -37.012  0.0000E+00  0.2000E+01
    -36.977  0.0000E+00  0.2000E+01
    -36.943  0.0000E+00  0.2000E+01
    -36.908  0.0000E+00  0.2000E+01
    -36.873  0.0000E+00  0.2000E+01
    -36.839  0.0000E+00  0.2000E+01
    -36.804  0.0000E+00  0.2000E+01
    -36.769  0.0000E+00  0.2000E+01
    -36.735  0.0000E+00  0.2000E+01
    -36.700  0.0000E+00  0.2000E+01
    -36.665  0.0000E+00  0.2000E+01
    -36.631  0.0000E+00  0.2000E+01
    -36.596  0.0000E+00  0.2000E+01
    -36.561  0.0000E+00  0.2000E+01
    -36.527  0.0000E+00  0.2000E+01
    -36.492  0.0000E+00  0.2000E+01
    -36.457  0.0000E+00  0.2000E+01
    -36.423  0.0000E+00  0.2000E+01
    -36.388  0.0000E+00  0.2000E+01
    -36.353  0.0000E+00  0.2000E+01
    -36.319  0.0000E+00  0.2000E+01
    -36.284  0.0000E+00  0.2000E+01
    -36.249  0.0000E+00  0.2000E+01
    -36.215  0.0000E+00  0.2000E+01
    -36.180  0.0000E+00  0.2000E+01
    -36.145  0.0000E+00  0.2000E+01
    -36.111  0.0000E+00  0.2000E+01
    -36.076  0.0000E+00  0.2000E+01
    -36.041  0.0000E+00  0.2000E+01
    -36.007  0.0000E+00  0.2000E+01
    -35.972  0.0000E+00  0.2000E+01
    -35.937  0.0000E+00  0.2000E+01
    -35.903  0.0000E+00  0.2000E+01
    -35.868  0.0000E+00  0.2000E+01
    -35.833  0.0000E+00  0.2000E+01
    -35.799  0.0000E+00  0.2000E+01
    -35.764  0.0000E+00  0.2000E+01
    -35.729  0.0000E+00  0.2000E+01
    -35.695  0.0000E+00  0.2000E+01
    -35.660  0.0000E+00  0.2000E+01
    -35.625  0.0000E+00  0.2000E+01
    -35.591  0.0000E+00  0.2000E+01
    -35.556  0.0000E+00  0.2000E+01
    -35.521  0.0000E+00  0.2000E+01
    -35.487  0.0000E+00  0.2000E+01
    -35.452  0.0000E+00  0.2000E+01
    -35.417  0.0000E+00  0.2000E+01
    -35.383  0.0000E+00  0.2000E+01
    -35.348  0.0000E+00  0.2000E+01
    -35.314  0.0000E+00  0.2000E+01
    -35.279  0.0000E+00  0.2000E+01
    -35.244  0.0000E+00  0.2000E+01
    -35.210  0.0000E+00  0.2000E+01
    -35.175  0.0000E+00  0.2000E+01
    -35.140  0.0000E+00  0.2000E+01
    -35.106  0.0000E+00  0.2000E+01
    -35.071  0.0000E+00  0.2000E+01
    -35.036  0.0000E+00  0.2000E+01
    -35.002  0.0000E+00  0.2000E+01
    -34.967  0.0000E+00  0.2000E+01
    -34.932  0.0000E+00  0.2000E+01
    -34.898  0.0000E+00  0.2000E+01
    -34.863  0.0000E+00  0.2000E+01
    -34.828  0.0000E+00  0.2000E+01
    -34.794  0.0000E+00  0.2000E+01
    -34.759  0.0000E+00  0.2000E+01
    -34.724  0.0000E+00  0.2000E+01
    -34.690  0.0000E+00  0.2000E+01
    -34.655  0.0000E+00  0.2000E+01
    -34.620  0.0000E+00  0.2000E+01
    -34.586  0.0000E+00  0.2000E+01
    -34.551  0.0000E+00  0.2000E+01
    -34.516  0.0000E+00  0.2000E+01
    -34.482  0.0000E+00  0.2000E+01
    -34.447  0.0000E+00  0.2000E+01
    -34.412  0.0000E+00  0.2000E+01
    -34.378  0.0000E+00  0.2000E+01
    -34.343  0.0000E+00  0.2000E+01
    -34.308  0.0000E+00  0.2000E+01
    -34.274  0.0000E+00  0.2000E+01
    -34.239  0.0000E+00  0.2000E+01
    -34.204  0.0000E+00  0.2000E+01
    -34.170  0.0000E+00  0.2000E+01
    -34.135  0.0000E+00  0.2000E+01
    -34.100  0.0000E+00  0.2000E+01
    -34.066  0.0000E+00  0.2000E+01
    -34.031  0.0000E+00  0.2000E+01
    -33.996  0.0000E+00  0.2000E+01
    -33.962  0.0000E+00  0.2000E+01
    -33.927  0.0000E+00  0.2000E+01
    -33.892  0.0000E+00  0.2000E+01
    -33.858  0.0000E+00  0.2000E+01
    -33.823  0.0000E+00  0.2000E+01
    -33.788  0.0000E+00  0.2000E+01
    -33.754  0.0000E+00  0.2000E+01
    -33.719  0.0000E+00  0.2000E+01
    -33.684  0.0000E+00  0.2000E+01
    -33.650  0.0000E+00  0.2000E+01
    -33.615  0.0000E+00  0.2000E+01
    -33.580  0.0000E+00  0.2000E+01
    -33.546  0.0000E+00  0.2000E+01
    -33.511  0.0000E+00  0.2000E+01
    -33.476  0.0000E+00  0.2000E+01
    -33.442  0.0000E+00  0.2000E+01
    -33.407  0.0000E+00  0.2000E+01
    -33.372  0.0000E+00  0.2000E+01
    -33.338  0.0000E+00  0.2000E+01
    -33.303  0.0000E+00  0.2000E+01
    -33.268  0.0000E+00  0.2000E+01
    -33.234  0.0000E+00  0.2000E+01
    -33.199  0.0000E+00  0.2000E+01
    -33.164  0.0000E+00  0.2000E+01
    -33.130  0.0000E+00  0.2000E+01
    -33.095  0.0000E+00  0.2000E+01
    -33.060  0.0000E+00  0.2000E+01
    -33.026  0.0000E+00  0.2000E+01
    -32.991  0.0000E+00  0.2000E+01
    -32.956  0.0000E+00  0.2000E+01
    -32.922  0.0000E+00  0.2000E+01
    -32.887  0.0000E+00  0.2000E+01
    -32.852  0.0000E+00  0.2000E+01
    -32.818  0.0000E+00  0.2000E+01
    -32.783  0.0000E+00  0.2000E+01
    -32.748  0.0000E+00  0.2000E+01
    -32.714  0.0000E+00  0.2000E+01
    -32.679  0.0000E+00  0.2000E+01
    -32.645  0.0000E+00  0.2000E+01
    -32.610  0.0000E+00  0.2000E+01
    -32.575  0.0000E+00  0.2000E+01
    -32.541  0.0000E+00  0.2000E+01
    -32.506  0.0000E+00  0.2000E+01
    -32.471  0.0000E+00  0.2000E+01
    -32.437  0.0000E+00  0.2000E+01
    -32.402  0.0000E+00  0.2000E+01
    -32.367  0.0000E+00  0.2000E+01
    -32.333  0.0000E+00  0.2000E+01
    -32.298  0.0000E+00  0.2000E+01
    -32.263  0.0000E+00  0.2000E+01
    -32.229  0.0000E+00  0.2000E+01
    -32.194  0.0000E+00  0.2000E+01
    -32.159  0.0000E+00  0.2000E+01
    -32.125  0.0000E+00  0.2000E+01
    -32.090  0.0000E+00  0.2000E+01
    -32.055  0.0000E+00  0.2000E+01
    -32.021  0.0000E+00  0.2000E+01
    -31.986  0.0000E+00  0.2000E+01
    -31.951  0.0000E+00  0.2000E+01
    -31.917  0.0000E+00  0.2000E+01
    -31.882  0.0000E+00  0.2000E+01
    -31.847  0.0000E+00  0.2000E+01
    -31.813  0.0000E+00  0.2000E+01
    -31.778  0.0000E+00  0.2000E+01
    -31.743  0.0000E+00  0.2000E+01
    -31.709  0.0000E+00  0.2000E+01
    -31.674  0.0000E+00  0.2000E+01
    -31.639  0.0000E+00  0.2000E+01
    -31.605  0.0000E+00  0.2000E+01
    -31.570  0.0000E+00  0.2000E+01
    -31.535  0.0000E+00  0.2000E+01
    -31.501  0.0000E+00  0.2000E+01