    2    2    1    1
  0.8430375E+01  0.2878264E-09  0.2878264E-09  0.2878264E-09  0.2000000E-15
  1.000000000000000E-004
  CAR 
 unknown system                          
     18    455     52
 
  0.0000000E+00  0.0000000E+00  0.0000000E+00  0.6400000E-04
    1      -52.220889   1.000000
    2      -26.019109   1.000000
    3      -26.019109   1.000000
    4      -26.019108   1.000000
    5       -5.349562   1.000000
    6       10.542385   1.000000
    7       10.542385   1.000000
    8       10.542385   1.000000
    9       11.194500   1.000000
   10       11.194501   1.000000
   11       11.194501   1.000000
   12       12.298277   1.000000
   13       12.298277   1.000000
   14       19.244999   0.000000
   15       26.730864   0.000000
   16       33.129540   0.000000
   17       33.129540   0.000000
   18       33.129540   0.000000
   19       41.033077   0.000000
   20       41.033077   0.000000
   21       41.710753   0.000000
   22       41.710756   0.000000
   23       41.710756   0.000000
   24       50.230108   0.000000
   25       50.230108   0.000000
   26       50.230108   0.000000
   27       57.209065   0.000000
   28       62.510995   0.000000
   29       62.510995   0.000000
   30       62.510998   0.000000
   31       67.793823   0.000000
   32       67.793823   0.000000
   33       72.029668   0.000000
   34       72.029669   0.000000
   35       72.029669   0.000000
   36       82.391424   0.000000
   37       85.765303   0.000000
   38       85.765303   0.000000
   39       85.765304   0.000000
   40       87.593337   0.000000
   41       89.774334   0.000000
   42       89.774336   0.000000
   43       89.774339   0.000000
   44       91.831702   0.000000
   45       91.831713   0.000000
   46       91.831732   0.000000
   47       92.094192   0.000000
   48       92.094193   0.000000
   49       92.094195   0.000000
   50       94.029437   0.000000
   51       94.030434   0.000000
   52       94.031125   0.000000
 
  0.4000000E-01  0.0000000E+00  0.0000000E+00  0.5120000E-03
    1      -52.219493   1.000000
    2      -26.028598   1.000000
    3      -26.019945   1.000000
    4      -26.019945   1.000000
    5       -5.314204   1.000000
    6       10.222673   1.000000
    7       10.291396   1.000000
    8       10.291396   1.000000
    9       11.272267   1.000000
   10       11.272268   1.000000
   11       11.419578   1.000000
   12       12.524657   1.011533
   13       12.524657   0.909320
   14       19.331106   0.000000
   15       26.736620   0.000000
   16       33.091717   0.000000
   17       33.091718   0.000000
   18       33.106409   0.000000
   19       40.196410   0.000000
   20       40.196411   0.000000
   21       41.787347   0.000000
   22       42.632250   0.000000
   23       42.632252   0.000000
   24       50.113223   0.000000
   25       50.187150   0.000000
   26       50.187150   0.000000
   27       57.395296   0.000000
   28       62.104855   0.000000
   29       62.104857   0.000000
   30       62.548924   0.000000
   31       68.222720   0.000000
   32       68.222720   0.000000
   33       71.914957   0.000000
   34       72.100749   0.000000
   35       72.100750   0.000000
   36       82.343098   0.000000
   37       85.231853   0.000000
   38       85.231853   0.000000
   39       85.913710   0.000000
   40       87.358562   0.000000
   41       88.482307   0.000000
   42       89.193585   0.000000
   43       89.193588   0.000000
   44       90.697191   0.000000
   45       91.528368   0.000000
   46       91.528389   0.000000
   47       92.899286   0.000000
   48       92.899542   0.000000
   49       93.216160   0.000000
   50       94.411401   0.000000
   51       94.455661   0.000000
   52       95.245682   0.000000
 
  0.8000000E-01  0.0000000E+00  0.0000000E+00  0.5120000E-03
    1      -52.215393   1.000000
    2      -26.056392   1.000000
    3      -26.022431   1.000000
    4      -26.022430   1.000000
    5       -5.209261   1.000000
    6        9.631899   1.000000
    7        9.803225   1.000000
    8        9.803226   1.000000
    9       11.397503   1.000000
   10       11.397503   1.000000
   11       11.742104   1.000000
   12       13.044841   0.148133
   13       13.044841   0.008775
   14       19.573376   0.000000
   15       26.733438   0.000000
   16       32.966543   0.000000
   17       32.966543   0.000000
   18       33.074890   0.000000
   19       39.220152   0.000000
   20       39.220154   0.000000
   21       42.003648   0.000000
   22       43.876446   0.000000
   23       43.876448   0.000000
   24       49.779213   0.000000
   25       50.045686   0.000000
   26       50.045686   0.000000
   27       57.936842   0.000000
   28       61.215729   0.000000
   29       61.215731   0.000000
   30       62.662251   0.000000
   31       69.092599   0.000000
   32       69.092599   0.000000
   33       71.585190   0.000000
   34       72.408810   0.000000
   35       72.408812   0.000000
   36       82.148612   0.000000
   37       83.821615   0.000000
   38       83.821615   0.000000
   39       86.054278   0.000000
   40       86.602269   0.000000
   41       86.872728   0.000000
   42       88.278841   0.000000
   43       88.278842   0.000000
   44       88.708834   0.000000
   45       91.010643   0.000000
   46       91.010730   0.000000
   47       94.229746   0.000000
   48       94.233533   0.000000
   49       94.673356   0.000000
   50       94.725085   0.000000
   51       95.449358   0.000000
   52       95.788062   0.000000
 
  0.1200000E+00  0.0000000E+00  0.0000000E+00  0.5120000E-03
    1      -52.208833   1.000000
    2      -26.100503   1.000000
    3      -26.026369   1.000000
    4      -26.026368   1.000000
    5       -5.038207   1.000000
    6        8.946001   1.000000
    7        9.273598   1.000000
    8        9.273598   1.000000
    9       11.551374   1.000000
   10       11.551374   1.000000
   11       12.026561   1.000000
   12       13.675760   0.000000
   13       13.675760   0.000000
   14       19.927499   0.000000
   15       26.673434   0.000000
   16       32.722879   0.000000
   17       32.722879   0.000000
   18       33.126574   0.000000
   19       38.412680   0.000000
   20       38.412682   0.000000
   21       42.327302   0.000000
   22       45.171221   0.000000
   23       45.171222   0.000000
   24       49.269797   0.000000
   25       49.771596   0.000000
   26       49.771596   0.000000
   27       58.791659   0.000000
   28       60.271512   0.000000
   29       60.271513   0.000000
   30       62.850007   0.000000
   31       69.751477   0.000000
   32       69.751477   0.000000
   33       71.074412   0.000000
   34       73.185980   0.000000
   35       73.185981   0.000000
   36       81.557248   0.000000
   37       81.972573   0.000000
   38       81.972574   0.000000
   39       84.743968   0.000000
   40       84.926731   0.000000
   41       87.190730   0.000000
   42       87.257914   0.000000
   43       87.257916   0.000000
   44       87.442092   0.000000
   45       90.653881   0.000000
   46       90.653922   0.000000
   47       93.868828   0.000000
   48       93.869240   0.000000
   49       95.011628   0.000000
   50       96.602466   0.000000
   51       96.742716   0.000000
   52       97.753097   0.000000
 
  0.1600000E+00  0.0000000E+00  0.0000000E+00  0.5120000E-03
    1      -52.200193   1.000000
    2      -26.157883   1.000000
    3      -26.031504   1.000000
    4      -26.031503   1.000000
    5       -4.806836   1.000000
    6        8.209840   1.000000
    7        8.758290   1.000000
    8        8.758290   1.000000
    9       11.743323   1.000000
   10       11.743323   1.000000
   11       12.279668   1.000000
   12       14.341663   0.000000
   13       14.341663   0.000000
   14       20.328348   0.000000
   15       26.522139   0.000000
   16       32.326202   0.000000
   17       32.326202   0.000000
   18       33.351108   0.000000
   19       37.842353   0.000000
   20       37.842354   0.000000
   21       42.719819   0.000000
   22       46.491741   0.000000
   23       46.491742   0.000000
   24       48.642757   0.000000
   25       49.322929   0.000000
   26       49.322929   0.000000
   27       59.490856   0.000000
   28       59.490858   0.000000
   29       59.906561   0.000000
   30       63.109964   0.000000
   31       69.973447   0.000000
   32       69.973448   0.000000
   33       70.403415   0.000000
   34       74.373098   0.000000
   35       74.373100   0.000000
   36       80.080089   0.000000
   37       80.086135   0.000000
   38       80.086135   0.000000
   39       82.963385   0.000000
   40       83.944663   0.000000
   41       86.228685   0.000000
   42       86.228685   0.000000
   43       86.281249   0.000000
   44       88.261117   0.000000
   45       90.105680   0.000000
   46       90.105700   0.000000
   47       94.165375   0.000000
   48       94.168947   0.000000
   49       94.429261   0.000000
   50       98.690342   0.000000
   51       98.708382   0.000000
   52       98.725412   0.000000
 
  0.2000000E+00  0.0000000E+00  0.0000000E+00  0.5120000E-03
    1      -52.190061   1.000000
    2      -26.224678   1.000000
    3      -26.037564   1.000000
    4      -26.037563   1.000000
    5       -4.523159   1.000000
    6        7.453125   1.000000
    7        8.278464   1.000000
    8        8.278464   1.000000
    9       11.971189   1.000000
   10       11.971189   1.000000
   11       12.522530   1.000000
   12       15.008472   0.000000
   13       15.008472   0.000000
   14       20.692174   0.000000
   15       26.307364   0.000000
   16       31.770235   0.000000
   17       31.770235   0.000000
   18       33.781101   0.000000
   19       37.539073   0.000000
   20       37.539075   0.000000
   21       43.133634   0.000000
   22       47.824102   0.000000
   23       47.824104   0.000000
   24       47.980748   0.000000
   25       48.675839   0.000000
   26       48.675839   0.000000
   27       58.965315   0.000000
   28       58.965317   0.000000
   29       61.220605   0.000000
   30       63.438604   0.000000
   31       69.554413   0.000000
   32       69.921477   0.000000
   33       69.921478   0.000000
   34       75.185109   0.000000
   35       75.185112   0.000000
   36       77.986784   0.000000
   37       78.847735   0.000000
   38       78.847735   0.000000
   39       81.275809   0.000000
   40       83.592621   0.000000
   41       85.300187   0.000000
   42       85.300187   0.000000
   43       85.485177   0.000000
   44       89.186359   0.000000
   45       89.362781   0.000000
   46       89.362783   0.000000
   47       94.036143   0.000000
   48       95.123134   0.000000
   49       95.123289   0.000000
   50       98.527803   0.000000
   51       98.548659   0.000000
   52      100.853952   0.000000
 
  0.2400000E+00  0.0000000E+00  0.0000000E+00  0.5120000E-03
    1      -52.179023   1.000000
    2      -26.296458   1.000000
    3      -26.044102   1.000000
    4      -26.044102   1.000000
    5       -4.197483   1.000000
    6        6.700530   1.000000
    7        7.844950   1.000000
    8        7.844950   1.000000
    9       12.226589   1.000000
   10       12.226589   1.000000
   11       12.774014   0.581098
   12       15.654386   0.000000
   13       15.654386   0.000000
   14       20.918398   0.000000
   15       26.128606   0.000000
   16       31.094204   0.000000
   17       31.094205   0.000000
   18       34.381297   0.000000
   19       37.487024   0.000000
   20       37.487026   0.000000
   21       43.475324   0.000000
   22       47.430384   0.000000
   23       47.828586   0.000000
   24       47.828586   0.000000
   25       49.173755   0.000000
   26       49.173756   0.000000
   27       58.705612   0.000000
   28       58.705613   0.000000
   29       62.657398   0.000000
   30       63.830407   0.000000
   31       68.451803   0.000000
   32       69.726601   0.000000
   33       69.726602   0.000000
   34       74.340604   0.000000
   35       74.340606   0.000000
   36       75.975532   0.000000
   37       79.424488   0.000000
   38       79.424489   0.000000
   39       79.691816   0.000000
   40       83.470095   0.000000
   41       84.554078   0.000000
   42       84.554078   0.000000
   43       84.817005   0.000000
   44       88.590139   0.000000
   45       88.590141   0.000000
   46       89.958796   0.000000
   47       93.881034   0.000000
   48       96.485691   0.000000
   49       96.485767   0.000000
   50       97.562731   0.000000
   51       97.563021   0.000000
   52      102.840731   0.000000
 
  0.2800000E+00  0.0000000E+00  0.0000000E+00  0.5120000E-03
    1      -52.167788   1.000000
    2      -26.368658   1.000000
    3      -26.050730   1.000000
    4      -26.050730   1.000000
    5       -3.842889   1.000000
    6        5.974172   1.000000
    7        7.464465   1.000000
    8        7.464465   1.000000
    9       12.497079   1.000000
   10       12.497079   1.001541
   11       13.046486  -0.004351
   12       16.260949   0.000000
   13       16.260949   0.000000
   14       20.916814   0.000000
   15       26.102627   0.000000
   16       30.363234   0.000000
   17       30.363235   0.000000
   18       35.078994   0.000000
   19       37.645079   0.000000
   20       37.645081   0.000000
   21       43.551924   0.000000
   22       46.844685   0.000000
   23       46.844686   0.000000
   24       47.251669   0.000000
   25       50.515067   0.000000
   26       50.515068   0.000000
   27       58.665677   0.000000
   28       58.665678   0.000000
   29       64.091885   0.000000
   30       64.276535   0.000000
   31       67.008162   0.000000
   32       69.399556   0.000000
   33       69.399556   0.000000
   34       72.704915   0.000000
   35       72.704917   0.000000
   36       74.467180   0.000000
   37       78.221969   0.000000
   38       80.839117   0.000000
   39       80.839118   0.000000
   40       83.281879   0.000000
   41       84.132941   0.000000
   42       84.132941   0.000000
   43       84.390993   0.000000
   44       87.874709   0.000000
   45       87.874711   0.000000
   46       90.381206   0.000000
   47       93.993658   0.000000
   48       96.303560   0.000000
   49       96.303566   0.000000
   50       98.150598   0.000000
   51       98.150599   0.000000
   52      102.952811   0.000000
 
  0.3200000E+00  0.0000000E+00  0.0000000E+00  0.5120000E-03
    1      -52.157046   1.000000
    2      -26.436752   1.000000
    3      -26.057028   1.000000
    4      -26.057027   1.000000
    5       -3.475973   1.000000
    6        5.295648   1.000000
    7        7.141630   1.000000
    8        7.141630   1.000000
    9       12.766945   0.957908
   10       12.766945   0.597489
   11       13.343719   0.000000
   12       16.810587   0.000000
   13       16.810588   0.000000
   14       20.670207   0.000000
   15       26.274587   0.000000
   16       29.642471   0.000000
   17       29.642472   0.000000
   18       35.797256   0.000000
   19       37.974557   0.000000
   20       37.974559   0.000000
   21       43.213149   0.000000
   22       45.772330   0.000000
   23       45.772331   0.000000
   24       47.666499   0.000000
   25       51.848014   0.000000
   26       51.848015   0.000000
   27       58.774553   0.000000
   28       58.774554   0.000000
   29       64.699847   0.000000
   30       64.762725   0.000000
   31       65.884618   0.000000
   32       68.801582   0.000000
   33       68.801582   0.000000
   34       71.228244   0.000000
   35       71.228246   0.000000
   36       73.680890   0.000000
   37       76.881659   0.000000
   38       81.838158   0.000000
   39       81.838160   0.000000
   40       82.812112   0.000000
   41       84.353647   0.000000
   42       84.468625   0.000000
   43       84.468625   0.000000
   44       87.289739   0.000000
   45       87.289741   0.000000
   46       90.423644   0.000000
   47       94.167170   0.000000
   48       95.122075   0.000000
   49       95.122076   0.000000
   50       99.848234   0.000000
   51       99.848252   0.000000
   52      102.778330   0.000000
 
  0.3600000E+00  0.0000000E+00  0.0000000E+00  0.5120000E-03
    1      -52.147509   1.000000
    2      -26.496700   1.000000
    3      -26.062615   1.000000
    4      -26.062614   1.000000
    5       -3.118387   1.000000
    6        4.688811   1.000000
    7        6.879800   1.000000
    8        6.879800   1.000000
    9       13.017858  -0.078756
   10       13.017858  -0.005483
   11       13.658533   0.000000
   12       17.285270   0.000000
   13       17.285270   0.000000
   14       20.255001   0.000000
   15       26.587903   0.000000
   16       28.987498   0.000000
   17       28.987499   0.000000
   18       36.473524   0.000000
   19       38.447974   0.000000
   20       38.447976   0.000000
   21       42.594402   0.000000
   22       44.665904   0.000000
   23       44.665905   0.000000
   24       48.604300   0.000000
   25       53.149256   0.000000
   26       53.149257   0.000000
   27       58.958249   0.000000
   28       58.958249   0.000000
   29       62.798831   0.000000
   30       65.265430   0.000000
   31       66.711031   0.000000
   32       67.707659   0.000000
   33       67.707659   0.000000
   34       70.347285   0.000000
   35       70.347285   0.000000
   36       73.671418   0.000000
   37       75.695073   0.000000
   38       82.004792   0.000000
   39       82.004793   0.000000
   40       82.147226   0.000000
   41       84.570331   0.000000
   42       85.483545   0.000000
   43       85.483547   0.000000
   44       87.146767   0.000000
   45       87.146768   0.000000
   46       90.214577   0.000000
   47       93.998434   0.000000
   48       94.081398   0.000000
   49       94.081398   0.000000
   50      101.246369   0.000000
   51      101.246865   0.000000
   52      102.483844   0.000000
 
  0.4000000E+00  0.0000000E+00  0.0000000E+00  0.5120000E-03
    1      -52.139761   1.000000
    2      -26.544935   1.000000
    3      -26.067145   1.000000
    4      -26.067144   1.000000
    5       -2.798398   1.000000
    6        4.182517   1.000000
    7        6.681439   1.000000
    8        6.681439   1.000000
    9       13.230115   0.000000
   10       13.230115   0.000000
   11       13.968747   0.000000
   12       17.666247   0.000000
   13       17.666248   0.000000
   14       19.787914   0.000000
   15       26.940569   0.000000
   16       28.445491   0.000000
   17       28.445492   0.000000
   18       37.063983   0.000000
   19       39.047774   0.000000
   20       39.047776   0.000000
   21       41.911053   0.000000
   22       43.568655   0.000000
   23       43.568656   0.000000
   24       49.896771   0.000000
   25       54.369855   0.000000
   26       54.369857   0.000000
   27       59.151583   0.000000
   28       59.151583   0.000000
   29       60.599306   0.000000
   30       65.745733   0.000000
   31       66.348931   0.000000
   32       66.348932   0.000000
   33       67.335088   0.000000
   34       69.947534   0.000000
   35       69.947534   0.000000
   36       74.354421   0.000000
   37       74.701283   0.000000
   38       81.367118   0.000000
   39       81.919510   0.000000
   40       81.919511   0.000000
   41       84.913648   0.000000
   42       85.651600   0.000000
   43       85.651603   0.000000
   44       88.292916   0.000000
   45       88.292917   0.000000
   46       89.849148   0.000000
   47       93.242459   0.000000
   48       93.242459   0.000000
   49       93.373524   0.000000
   50      101.529300   0.000000
   51      101.530518   0.000000
   52      102.631711   0.000000
 
  0.4400000E+00  0.0000000E+00  0.0000000E+00  0.5120000E-03
    1      -52.134298   1.000000
    2      -26.578665   1.000000
    3      -26.070328   1.000000
    4      -26.070328   1.000000
    5       -2.551384   1.000000
    6        3.811828   1.000000
    7        6.548276   1.000000
    8        6.548276   1.000000
    9       13.384700   0.000000
   10       13.384700   0.000000
   11       14.232270   0.000000
   12       17.934649   0.000000
   13       17.934649   0.000000
   14       19.384102   0.000000
   15       27.236655   0.000000
   16       28.056861   0.000000
   17       28.056861   0.000000
   18       37.529670   0.000000
   19       39.760265   0.000000
   20       39.760267   0.000000
   21       41.319549   0.000000
   22       42.513356   0.000000
   23       42.513357   0.000000
   24       51.394930   0.000000
   25       55.401909   0.000000
   26       55.401910   0.000000
   27       58.472908   0.000000
   28       59.302598   0.000000
   29       59.302598   0.000000
   30       65.141904   0.000000
   31       65.141905   0.000000
   32       66.142266   0.000000
   33       67.630023   0.000000
   34       69.755877   0.000000
   35       69.755877   0.000000
   36       73.962481   0.000000
   37       75.436461   0.000000
   38       80.504738   0.000000
   39       81.840144   0.000000
   40       81.840145   0.000000
   41       85.310143   0.000000
   42       85.415078   0.000000
   43       85.415080   0.000000
   44       89.377828   0.000000
   45       89.879806   0.000000
   46       89.879807   0.000000
   47       92.620382   0.000000
   48       92.620383   0.000000
   49       92.656769   0.000000
   50      100.654128   0.000000
   51      100.654319   0.000000
   52      103.187665   0.000000
 
  0.4800000E+00  0.0000000E+00  0.0000000E+00  0.5120000E-03
    1      -52.131471   1.000000
    2      -26.596018   1.000000
    3      -26.071959   1.000000
    4      -26.071959   1.000000
    5       -2.414829   1.000000
    6        3.613635   1.000000
    7        6.481428   1.000000
    8        6.481428   1.000000
    9       13.466345   0.000000
   10       13.466345   0.000000
   11       14.389403   0.000000
   12       18.073901   0.000000
   13       18.073901   0.000000
   14       19.146900   0.000000
   15       27.404363   0.000000
   16       27.853458   0.000000
   17       27.853459   0.000000
   18       37.805485   0.000000
   19       40.562412   0.000000
   20       40.562413   0.000000
   21       40.960533   0.000000
   22       41.536717   0.000000
   23       41.536719   0.000000
   24       52.764849   0.000000
   25       56.037971   0.000000
   26       56.037973   0.000000
   27       56.783747   0.000000
   28       59.379986   0.000000
   29       59.379986   0.000000
   30       64.408259   0.000000
   31       64.408260   0.000000
   32       66.373994   0.000000
   33       67.733871   0.000000
   34       69.673265   0.000000
   35       69.673265   0.000000
   36       73.559581   0.000000
   37       76.399933   0.000000
   38       79.749603   0.000000
   39       81.803246   0.000000
   40       81.803247   0.000000
   41       85.254257   0.000000
   42       85.254260   0.000000
   43       85.621258   0.000000
   44       88.975204   0.000000
   45       91.097286   0.000000
   46       91.097286   0.000000
   47       92.171312   0.000000
   48       92.171312   0.000000
   49       92.234485   0.000000
   50       99.772246   0.000000
   51       99.772276   0.000000
   52      103.628045   0.000000
 
  0.4000000E-01  0.4000000E-01  0.0000000E+00  0.3840000E-03
    1      -52.219029   1.000000
    2      -26.028007   1.000000
    3      -26.022113   1.000000
    4      -26.022113   1.000000
    5       -5.302626   1.000000
    6       10.013200   1.000000
    7       10.299114   1.000000
    8       10.299114   1.000000
    9       11.146105   1.000000
   10       11.481582   1.000000
   11       11.481582   1.000000
   12       12.313516   1.000000
   13       12.786383   0.458168
   14       19.361574   0.000000
   15       26.740811   0.000000
   16       32.991608   0.000000
   17       32.991608   0.000000
   18       33.281857   0.000000
   19       39.404847   0.000000
   20       41.027418   0.000000
   21       41.933421   0.000000
   22       41.933422   0.000000
   23       43.215029   0.000000
   24       50.080060   0.000000
   25       50.173617   0.000000
   26       50.173617   0.000000
   27       57.456410   0.000000
   28       61.662655   0.000000
   29       62.440091   0.000000
   30       62.440093   0.000000
   31       67.948534   0.000000
   32       68.758130   0.000000
   33       71.985566   0.000000
   34       72.053612   0.000000
   35       72.053613   0.000000
   36       82.329535   0.000000
   37       85.097698   0.000000
   38       85.097699   0.000000
   39       85.877482   0.000000
   40       87.253994   0.000000
   41       88.414911   0.000000
   42       88.414920   0.000000
   43       89.899182   0.000000
   44       91.075178   0.000000
   45       91.075188   0.000000
   46       91.583858   0.000000
   47       91.859796   0.000000
   48       93.438643   0.000000
   49       93.465693   0.000000
   50       93.491079   0.000000
   51       94.978019   0.000000
   52       95.684820   0.000000
 
  0.8000000E-01  0.4000000E-01  0.0000000E+00  0.1536000E-02
    1      -52.215832   1.000000
    2      -26.048658   1.000000
    3      -26.025851   1.000000
    4      -26.023223   1.000000
    5       -5.221518   1.000000
    6        9.501090   1.000000
    7        9.951196   1.000000
    8        9.991032   1.000000
    9       11.174739   1.000000
   10       11.632666   1.000000
   11       11.760754   1.000000
   12       12.580812   0.983216
   13       13.257258  -0.032962
   14       19.556563   0.000000
   15       26.746911   0.000000
   16       32.821025   0.000000
   17       32.840284   0.000000
   18       33.406550   0.000000
   19       38.420434   0.000000
   20       40.364195   0.000000
   21       42.169026   0.000000
   22       42.894819   0.000000
   23       44.212210   0.000000
   24       49.823860   0.000000
   25       50.065274   0.000000
   26       50.080464   0.000000
   27       57.877256   0.000000
   28       60.752696   0.000000
   29       62.018458   0.000000
   30       62.454256   0.000000
   31       68.458504   0.000000
   32       69.682307   0.000000
   33       71.734002   0.000000
   34       72.226955   0.000000
   35       72.248686   0.000000
   36       82.194055   0.000000
   37       83.930826   0.000000
   38       84.098811   0.000000
   39       86.117553   0.000000
   40       86.697087   0.000000
   41       86.978504   0.000000
   42       87.667548   0.000000
   43       89.228680   0.000000
   44       89.565270   0.000000
   45       90.623995   0.000000
   46       91.607441   0.000000
   47       92.481312   0.000000
   48       92.862591   0.000000
   49       94.246660   0.000000
   50       94.777486   0.000000
   51       95.011079   0.000000
   52       96.928438   0.000000
 
  0.1200000E+00  0.4000000E-01  0.0000000E+00  0.1536000E-02
    1      -52.210082   1.000000
    2      -26.087195   1.000000
    3      -26.030931   1.000000
    4      -26.025103   1.000000
    5       -5.073576   1.000000
    6        8.905415   1.000000
    7        9.428638   1.000000
    8        9.539285   1.000000
    9       11.295466   1.000000
   10       11.734968   1.000000
   11       12.046438   1.000000
   12       13.140103  -0.046312
   13       13.839641   0.000000
   14       19.879949   0.000000
   15       26.713187   0.000000
   16       32.559831   0.000000
   17       32.661638   0.000000
   18       33.499662   0.000000
   19       37.533072   0.000000
   20       39.575642   0.000000
   21       42.458133   0.000000
   22       44.171822   0.000000
   23       45.381965   0.000000
   24       49.369276   0.000000
   25       49.825298   0.000000
   26       49.896915   0.000000
   27       58.624404   0.000000
   28       59.760361   0.000000
   29       61.214620   0.000000
   30       62.584166   0.000000
   31       69.260576   0.000000
   32       70.256199   0.000000
   33       71.269697   0.000000
   34       72.709322   0.000000
   35       73.015863   0.000000
   36       81.658886   0.000000
   37       82.300156   0.000000
   38       82.637682   0.000000
   39       85.084263   0.000000
   40       85.313311   0.000000
   41       86.670630   0.000000
   42       86.933064   0.000000
   43       87.921992   0.000000
   44       88.228601   0.000000
   45       90.682967   0.000000
   46       91.034943   0.000000
   47       92.212987   0.000000
   48       94.099660   0.000000
   49       94.834022   0.000000
   50       95.268683   0.000000
   51       96.509321   0.000000
   52       98.131274   0.000000
 
  0.1600000E+00  0.4000000E-01  0.0000000E+00  0.1536000E-02
    1      -52.202154   1.000000
    2      -26.139963   1.000000
    3      -26.037057   1.000000
    4      -26.028643   1.000000
    5       -4.863853   1.000000
    6        8.263531   1.000000
    7        8.872175   1.000000
    8        9.047591   1.000000
    9       11.464642   1.000000
   10       11.885063   1.000000
   11       12.303677   1.000000
   12       13.782095   0.000000
   13       14.474210   0.000000
   14       20.272982   0.000000
   15       26.594457   0.000000
   16       32.184957   0.000000
   17       32.417473   0.000000
   18       33.635026   0.000000
   19       36.866706   0.000000
   20       38.967137   0.000000
   21       42.802633   0.000000
   22       45.487101   0.000000
   23       46.626021   0.000000
   24       48.773727   0.000000
   25       49.405495   0.000000
   26       49.588366   0.000000
   27       58.929658   0.000000
   28       59.647299   0.000000
   29       60.398493   0.000000
   30       62.796187   0.000000
   31       69.825185   0.000000
   32       70.280996   0.000000
   33       70.648394   0.000000
   34       73.500165   0.000000
   35       74.415315   0.000000
   36       79.901681   0.000000
   37       80.934708   0.000000
   38       81.146295   0.000000