 vasp.5.4.1 24Jun15 (build Nov 27 2015 14:36:51) complex                        
  
 executed on     NSC-TRIO-BUILD07 date 2016.03.04  02:47:18
 running on   16 total cores
 distrk:  each k-point on   16 cores,    1 groups
 distr:  one band on NCORES_PER_BAND=   4 cores,    4 groups


--------------------------------------------------------------------------------------------------------


 INCAR:
 POTCAR:    PAW_PBE V_sv 02Aug2007                
 POTCAR:    PAW_PBE N_s 07Sep2000                 
 POTCAR:    PAW_PBE V_sv 02Aug2007                
   VRHFIN =V: p6 d4 s1                                                          
   LEXCH  = PE                                                                  
   EATOM  =  1952.1149 eV,  143.4764 Ry                                         
                                                                                
   TITEL  = PAW_PBE V_sv 02Aug2007                                              
   LULTRA =        F    use ultrasoft PP ?                                      
   IUNSCR =        1    unscreen: 0-lin 1-nonlin 2-no                           
   RPACOR =    2.000    partial core radius                                     
   POMASS =   50.941; ZVAL   =   13.000    mass and valenz                      
   RCORE  =    2.300    outmost cutoff radius                                   
   RWIGS  =    2.300; RWIGS  =    1.217    wigner-seitz radius (au A)           
   ENMAX  =  263.673; ENMIN  =  197.755 eV                                      
   ICORE  =        3    local potential                                         
   LCOR   =        T    correct aug charges                                     
   LPAW   =        T    paw PP                                                  
   EAUG   =  526.568                                                            
   RMAX   =    2.359    core radius for proj-oper                               
   RAUG   =    1.300    factor for augmentation sphere                          
   RDEP   =    2.430    radius for radial grids                                 
   RDEPT  =    1.870    core radius for aug-charge                              
                                                                                
   Atomic configuration                                                         
    8 entries                                                                   
     n  l   j            E        occ.                                          
     1  0  0.50     -5360.7193   2.0000                                         
     2  0  0.50      -598.4546   2.0000                                         
     2  1  1.50      -499.0155   6.0000                                         
     3  0  0.50       -66.5711   2.0000                                         
     4  0  0.50        -3.8743   1.0000                                         
     3  1  1.50       -40.5282   6.0000                                         
     3  2  2.50        -2.4291   4.0000                                         
     4  3  2.50        -1.3606   0.0000                                         
   Description                                                                  
     l       E           TYP  RCUT    TYP  RCUT                                 
     0    -66.5711413     23  1.800                                             
     0     -3.8742736     23  2.300                                             
     1    -40.5282350     23  2.000                                             
     1      5.4423304     23  2.000                                             
     2     -2.4290848     23  2.300                                             
     2     -1.0472431     23  2.300                                             
     3     -1.3605826     23  2.300                                             
  local pseudopotential read in
  partial core-charges read in
  partial kinetic energy density read in
  atomic valenz-charges read in
  non local Contribution for L=           0  read in
    real space projection operators read in
  non local Contribution for L=           0  read in
    real space projection operators read in
  non local Contribution for L=           1  read in
    real space projection operators read in
  non local Contribution for L=           1  read in
    real space projection operators read in
  non local Contribution for L=           2  read in
    real space projection operators read in
  non local Contribution for L=           2  read in
    real space projection operators read in
    PAW grid and wavefunctions read in
 
   number of l-projection  operators is LMAX  =           6
   number of lm-projection operators is LMMAX =          18
 
 POTCAR:    PAW_PBE N_s 07Sep2000                 
   VRHFIN =N: s2p3                                                              
   LEXCH  = PE                                                                  
   EATOM  =   264.5486 eV,   19.4438 Ry                                         
                                                                                
   TITEL  = PAW_PBE N_s 07Sep2000                                               
   LULTRA =        F    use ultrasoft PP ?                                      
   IUNSCR =        0    unscreen: 0-lin 1-nonlin 2-no                           
   RPACOR =    0.000    partial core radius                                     
   POMASS =   14.001; ZVAL   =    5.000    mass and valenz                      
   RCORE  =    1.850    outmost cutoff radius                                   
   RWIGS  =    1.850; RWIGS  =    0.979    wigner-seitz radius (au A)           
   ENMAX  =  279.692; ENMIN  =  209.769 eV                                      
   RCLOC  =    0.803    cutoff for local pot                                    
   LCOR   =        T    correct aug charges                                     
   LPAW   =        T    paw PP                                                  
   EAUG   =  384.743                                                            
   DEXC   =    0.000                                                            
   RMAX   =    1.893    core radius for proj-oper                               
   RAUG   =    1.300    factor for augmentation sphere                          
   RDEP   =    1.933    radius for radial grids                                 
   RDEPT  =    1.632    core radius for aug-charge                              
                                                                                
   Atomic configuration                                                         
    4 entries                                                                   
     n  l   j            E        occ.                                          
     1  0  0.50      -384.7179   2.0000                                         
     2  0  0.50       -18.5828   2.0000                                         
     2  1  0.50        -7.0898   3.0000                                         
     3  2  1.50        -1.3606   0.0000                                         
   Description                                                                  
     l       E           TYP  RCUT    TYP  RCUT                                 
     0    -18.5828119     23  1.500                                             
     0    -19.9433945     23  1.500                                             
     1     -7.0897853     23  1.850                                             
     1     -4.8150613     23  1.850                                             
  local pseudopotential read in
  atomic valenz-charges read in
  non local Contribution for L=           0  read in
    real space projection operators read in
  non local Contribution for L=           0  read in
    real space projection operators read in
  non local Contribution for L=           1  read in
    real space projection operators read in
  non local Contribution for L=           1  read in
    real space projection operators read in
    PAW grid and wavefunctions read in
 
   number of l-projection  operators is LMAX  =           4
   number of lm-projection operators is LMMAX =           8
 

 ----------------------------------------------------------------------------- 
|                                                                             |
|  ADVICE TO THIS USER RUNNING 'VASP/VAMP'   (HEAR YOUR MASTER'S VOICE ...):  |
|                                                                             |
|      You enforced a specific xc-type in the INCAR file,                     |
|      a different type was found on the POTCAR file                          |
|          I HOPE YOU KNOW, WHAT YOU ARE  DOING                               |
|                                                                             |
 ----------------------------------------------------------------------------- 

  PAW_PBE V_sv 02Aug2007                :
 energy of atom  1       EATOM=-1952.1149
 kinetic energy error for atom=    0.0055 (will be added to EATOM!!)
  PAW_PBE N_s 07Sep2000                 :
 energy of atom  2       EATOM= -264.5486
 kinetic energy error for atom=    0.0016 (will be added to EATOM!!)
 
 
 POSCAR: VN                                      
  positions in direct lattice
  No initial velocities read in
 exchange correlation table for  LEXCH =       13
   RHO(1)=    0.500       N(1)  =     2000
   RHO(2)=  100.500       N(2)  =     4000
 


--------------------------------------------------------------------------------------------------------


 ion  position               nearest neighbor table
   1  0.000  0.000  0.000-   2 2.04   2 2.04   2 2.04   2 2.04   2 2.04   2 2.04
   2  0.500  0.500  0.500-   1 2.04   1 2.04   1 2.04   1 2.04   1 2.04   1 2.04
 
  LATTYP: Found a face centered cubic cell.
 ALAT       =     4.0704800000
  
  Lattice vectors:
  
 A1 = (   0.0000000000,   2.0352400000,   2.0352400000)
 A2 = (   2.0352400000,   0.0000000000,   2.0352400000)
 A3 = (   2.0352400000,   2.0352400000,   0.0000000000)


Analysis of symmetry for initial positions (statically):
=====================================================================
 Subroutine PRICEL returns:
 Original cell was already a primitive cell.
 

 Routine SETGRP: Setting up the symmetry group for a 
 face centered cubic supercell.


 Subroutine GETGRP returns: Found 48 space group operations
 (whereof 48 operations were pure point group operations)
 out of a pool of 48 trial point group operations.


The static configuration has the point symmetry O_h .


Analysis of symmetry for dynamics (positions and initial velocities):
=====================================================================
 Subroutine PRICEL returns:
 Original cell was already a primitive cell.
 

 Routine SETGRP: Setting up the symmetry group for a 
 face centered cubic supercell.


 Subroutine GETGRP returns: Found 48 space group operations
 (whereof 48 operations were pure point group operations)
 out of a pool of 48 trial point group operations.


The dynamic configuration has the point symmetry O_h .


 Subroutine INISYM returns: Found 48 space group operations
 (whereof 48 operations are pure point group operations),
 and found     1 'primitive' translations

 
 
 KPOINTS: Automatic mesh                          

Automatic generation of k-mesh.
Space group operators:
 irot       det(A)        alpha          n_x          n_y          n_z        tau_x        tau_y        tau_z
    1     1.000000     0.000000     1.000000     0.000000     0.000000     0.000000     0.000000     0.000000
    2    -1.000000     0.000000     1.000000     0.000000     0.000000     0.000000     0.000000     0.000000
    3     1.000000   120.000000    -0.577350    -0.577350    -0.577350     0.000000     0.000000     0.000000
    4    -1.000000   120.000000    -0.577350    -0.577350    -0.577350     0.000000     0.000000     0.000000
    5     1.000000   120.000000     0.577350     0.577350     0.577350     0.000000     0.000000     0.000000
    6    -1.000000   120.000000     0.577350     0.577350     0.577350     0.000000     0.000000     0.000000
    7     1.000000    90.000000     0.000000     0.000000    -1.000000     0.000000     0.000000     0.000000
    8    -1.000000    90.000000     0.000000     0.000000    -1.000000     0.000000     0.000000     0.000000
    9     1.000000   180.000000     0.000000     0.707107     0.707107     0.000000     0.000000     0.000000
   10    -1.000000   180.000000     0.000000     0.707107     0.707107     0.000000     0.000000     0.000000
   11     1.000000    90.000000     0.000000     1.000000     0.000000     0.000000     0.000000     0.000000
   12    -1.000000    90.000000     0.000000     1.000000     0.000000     0.000000     0.000000     0.000000
   13     1.000000   180.000000     0.000000     0.000000     1.000000     0.000000     0.000000     0.000000
   14    -1.000000   180.000000     0.000000     0.000000     1.000000     0.000000     0.000000     0.000000
   15     1.000000   120.000000    -0.577350     0.577350     0.577350     0.000000     0.000000     0.000000
   16    -1.000000   120.000000    -0.577350     0.577350     0.577350     0.000000     0.000000     0.000000
   17     1.000000   120.000000    -0.577350     0.577350    -0.577350     0.000000     0.000000     0.000000
   18    -1.000000   120.000000    -0.577350     0.577350    -0.577350     0.000000     0.000000     0.000000
   19     1.000000    90.000000     0.000000     0.000000     1.000000     0.000000     0.000000     0.000000
   20    -1.000000    90.000000     0.000000     0.000000     1.000000     0.000000     0.000000     0.000000
   21     1.000000    90.000000    -1.000000     0.000000     0.000000     0.000000     0.000000     0.000000
   22    -1.000000    90.000000    -1.000000     0.000000     0.000000     0.000000     0.000000     0.000000
   23     1.000000   180.000000     0.707107     0.000000     0.707107     0.000000     0.000000     0.000000
   24    -1.000000   180.000000     0.707107     0.000000     0.707107     0.000000     0.000000     0.000000
   25     1.000000   120.000000     0.577350    -0.577350     0.577350     0.000000     0.000000     0.000000
   26    -1.000000   120.000000     0.577350    -0.577350     0.577350     0.000000     0.000000     0.000000
   27     1.000000   120.000000    -0.577350    -0.577350     0.577350     0.000000     0.000000     0.000000
   28    -1.000000   120.000000    -0.577350    -0.577350     0.577350     0.000000     0.000000     0.000000
   29     1.000000   180.000000     1.000000     0.000000     0.000000     0.000000     0.000000     0.000000
   30    -1.000000   180.000000     1.000000     0.000000     0.000000     0.000000     0.000000     0.000000
   31     1.000000    90.000000     0.000000    -1.000000     0.000000     0.000000     0.000000     0.000000
   32    -1.000000    90.000000     0.000000    -1.000000     0.000000     0.000000     0.000000     0.000000
   33     1.000000   180.000000     0.707107     0.707107     0.000000     0.000000     0.000000     0.000000
   34    -1.000000   180.000000     0.707107     0.707107     0.000000     0.000000     0.000000     0.000000
   35     1.000000    90.000000     1.000000     0.000000     0.000000     0.000000     0.000000     0.000000
   36    -1.000000    90.000000     1.000000     0.000000     0.000000     0.000000     0.000000     0.000000
   37     1.000000   120.000000     0.577350    -0.577350    -0.577350     0.000000     0.000000     0.000000
   38    -1.000000   120.000000     0.577350    -0.577350    -0.577350     0.000000     0.000000     0.000000
   39     1.000000   180.000000     0.000000     1.000000     0.000000     0.000000     0.000000     0.000000
   40    -1.000000   180.000000     0.000000     1.000000     0.000000     0.000000     0.000000     0.000000
   41     1.000000   120.000000     0.577350     0.577350    -0.577350     0.000000     0.000000     0.000000
   42    -1.000000   120.000000     0.577350     0.577350    -0.577350     0.000000     0.000000     0.000000
   43     1.000000   180.000000     0.000000    -0.707107     0.707107     0.000000     0.000000     0.000000
   44    -1.000000   180.000000     0.000000    -0.707107     0.707107     0.000000     0.000000     0.000000
   45     1.000000   180.000000     0.707107    -0.707107     0.000000     0.000000     0.000000     0.000000
   46    -1.000000   180.000000     0.707107    -0.707107     0.000000     0.000000     0.000000     0.000000
   47     1.000000   180.000000     0.707107     0.000000    -0.707107     0.000000     0.000000     0.000000
   48    -1.000000   180.000000     0.707107     0.000000    -0.707107     0.000000     0.000000     0.000000
 
 Subroutine IBZKPT returns following result:
 ===========================================
 
 Found    455 irreducible k-points:
 
 Following reciprocal coordinates:
            Coordinates               Weight
  0.000000  0.000000  0.000000      1.000000
  0.040000  0.000000  0.000000      8.000000
  0.080000  0.000000  0.000000      8.000000
  0.120000  0.000000  0.000000      8.000000
  0.160000  0.000000  0.000000      8.000000
  0.200000  0.000000  0.000000      8.000000
  0.240000  0.000000  0.000000      8.000000
  0.280000  0.000000  0.000000      8.000000
  0.320000  0.000000  0.000000      8.000000
  0.360000  0.000000  0.000000      8.000000
  0.400000  0.000000  0.000000      8.000000
  0.440000  0.000000  0.000000      8.000000
  0.480000  0.000000  0.000000      8.000000
  0.040000  0.040000  0.000000      6.000000
  0.080000  0.040000  0.000000     24.000000
  0.120000  0.040000  0.000000     24.000000
  0.160000  0.040000  0.000000     24.000000
  0.200000  0.040000  0.000000     24.000000
  0.240000  0.040000  0.000000     24.000000
  0.280000  0.040000  0.000000     24.000000
  0.320000  0.040000  0.000000     24.000000
  0.360000  0.040000  0.000000     24.000000
  0.400000  0.040000  0.000000     24.000000
  0.440000  0.040000  0.000000     24.000000
  0.480000  0.040000  0.000000     24.000000
 -0.480000  0.040000  0.000000     24.000000
 -0.440000  0.040000  0.000000     24.000000
 -0.400000  0.040000  0.000000     24.000000
 -0.360000  0.040000  0.000000     24.000000
 -0.320000  0.040000  0.000000     24.000000
 -0.280000  0.040000  0.000000     24.000000
 -0.240000  0.040000  0.000000     24.000000
 -0.200000  0.040000  0.000000     24.000000
 -0.160000  0.040000  0.000000     24.000000
 -0.120000  0.040000  0.000000     24.000000
 -0.080000  0.040000  0.000000     24.000000
 -0.040000  0.040000  0.000000     12.000000
  0.080000  0.080000  0.000000      6.000000
  0.120000  0.080000  0.000000     24.000000
  0.160000  0.080000  0.000000     24.000000
  0.200000  0.080000  0.000000     24.000000
  0.240000  0.080000  0.000000     24.000000
  0.280000  0.080000  0.000000     24.000000
  0.320000  0.080000  0.000000     24.000000
  0.360000  0.080000  0.000000     24.000000
  0.400000  0.080000  0.000000     24.000000
  0.440000  0.080000  0.000000     24.000000
  0.480000  0.080000  0.000000     24.000000
 -0.480000  0.080000  0.000000     24.000000
 -0.440000  0.080000  0.000000     24.000000
 -0.400000  0.080000  0.000000     24.000000
 -0.360000  0.080000  0.000000     24.000000
 -0.320000  0.080000  0.000000     24.000000
 -0.280000  0.080000  0.000000     24.000000
 -0.240000  0.080000  0.000000     24.000000
 -0.200000  0.080000  0.000000     24.000000
 -0.160000  0.080000  0.000000     24.000000
 -0.120000  0.080000  0.000000     24.000000
 -0.080000  0.080000  0.000000     12.000000
  0.120000  0.120000  0.000000      6.000000
  0.160000  0.120000  0.000000     24.000000
  0.200000  0.120000  0.000000     24.000000
  0.240000  0.120000  0.000000     24.000000
  0.280000  0.120000  0.000000     24.000000
  0.320000  0.120000  0.000000     24.000000
  0.360000  0.120000  0.000000     24.000000
  0.400000  0.120000  0.000000     24.000000
  0.440000  0.120000  0.000000     24.000000
  0.480000  0.120000  0.000000     24.000000
 -0.480000  0.120000  0.000000     24.000000
 -0.440000  0.120000  0.000000     24.000000
 -0.400000  0.120000  0.000000     24.000000
 -0.360000  0.120000  0.000000     24.000000
 -0.320000  0.120000  0.000000     24.000000
 -0.280000  0.120000  0.000000     24.000000
 -0.240000  0.120000  0.000000     24.000000
 -0.200000  0.120000  0.000000     24.000000
 -0.160000  0.120000  0.000000     24.000000
 -0.120000  0.120000  0.000000     12.000000
  0.160000  0.160000  0.000000      6.000000
  0.200000  0.160000  0.000000     24.000000
  0.240000  0.160000  0.000000     24.000000
  0.280000  0.160000  0.000000     24.000000
  0.320000  0.160000  0.000000     24.000000
  0.360000  0.160000  0.000000     24.000000
  0.400000  0.160000  0.000000     24.000000
  0.440000  0.160000  0.000000     24.000000
  0.480000  0.160000  0.000000     24.000000
 -0.480000  0.160000  0.000000     24.000000
 -0.440000  0.160000  0.000000     24.000000
 -0.400000  0.160000  0.000000     24.000000
 -0.360000  0.160000  0.000000     24.000000
 -0.320000  0.160000  0.000000     24.000000
 -0.280000  0.160000  0.000000     24.000000
 -0.240000  0.160000  0.000000     24.000000
 -0.200000  0.160000  0.000000     24.000000
 -0.160000  0.160000  0.000000     12.000000
  0.200000  0.200000  0.000000      6.000000
  0.240000  0.200000  0.000000     24.000000
  0.280000  0.200000  0.000000     24.000000
  0.320000  0.200000  0.000000     24.000000
  0.360000  0.200000  0.000000     24.000000
  0.400000  0.200000  0.000000     24.000000
  0.440000  0.200000  0.000000     24.000000
  0.480000  0.200000  0.000000     24.000000
 -0.480000  0.200000  0.000000     24.000000
 -0.440000  0.200000  0.000000     24.000000
 -0.400000  0.200000  0.000000     24.000000
 -0.360000  0.200000  0.000000     24.000000
 -0.320000  0.200000  0.000000     24.000000
 -0.280000  0.200000  0.000000     24.000000
 -0.240000  0.200000  0.000000     24.000000
 -0.200000  0.200000  0.000000     12.000000
  0.240000  0.240000  0.000000      6.000000
  0.280000  0.240000  0.000000     24.000000
  0.320000  0.240000  0.000000     24.000000
  0.360000  0.240000  0.000000     24.000000
  0.400000  0.240000  0.000000     24.000000
  0.440000  0.240000  0.000000     24.000000
  0.480000  0.240000  0.000000     24.000000
 -0.480000  0.240000  0.000000     24.000000
 -0.440000  0.240000  0.000000     24.000000
 -0.400000  0.240000  0.000000     24.000000
 -0.360000  0.240000  0.000000     24.000000
 -0.320000  0.240000  0.000000     24.000000
 -0.280000  0.240000  0.000000     24.000000
 -0.240000  0.240000  0.000000     12.000000
  0.280000  0.280000  0.000000      6.000000
  0.320000  0.280000  0.000000     24.000000
  0.360000  0.280000  0.000000     24.000000
  0.400000  0.280000  0.000000     24.000000
  0.440000  0.280000  0.000000     24.000000
  0.480000  0.280000  0.000000     24.000000
 -0.480000  0.280000  0.000000     24.000000
 -0.440000  0.280000  0.000000     24.000000
 -0.400000  0.280000  0.000000     24.000000
 -0.360000  0.280000  0.000000     24.000000
 -0.320000  0.280000  0.000000     24.000000
 -0.280000  0.280000  0.000000     12.000000
  0.320000  0.320000  0.000000      6.000000
  0.360000  0.320000  0.000000     24.000000
  0.400000  0.320000  0.000000     24.000000
  0.440000  0.320000  0.000000     24.000000
  0.480000  0.320000  0.000000     24.000000
 -0.480000  0.320000  0.000000     24.000000
 -0.440000  0.320000  0.000000     24.000000
 -0.400000  0.320000  0.000000     24.000000
 -0.360000  0.320000  0.000000     24.000000
 -0.320000  0.320000  0.000000     12.000000
  0.360000  0.360000  0.000000      6.000000
  0.400000  0.360000  0.000000     24.000000
  0.440000  0.360000  0.000000     24.000000
  0.480000  0.360000  0.000000     24.000000
 -0.480000  0.360000  0.000000     24.000000
 -0.440000  0.360000  0.000000     24.000000
 -0.400000  0.360000  0.000000     24.000000
 -0.360000  0.360000  0.000000     12.000000
  0.400000  0.400000  0.000000      6.000000
  0.440000  0.400000  0.000000     24.000000
  0.480000  0.400000  0.000000     24.000000
 -0.480000  0.400000  0.000000     24.000000
 -0.440000  0.400000  0.000000     24.000000
 -0.400000  0.400000  0.000000     12.000000
  0.440000  0.440000  0.000000      6.000000
  0.480000  0.440000  0.000000     24.000000
 -0.480000  0.440000  0.000000     24.000000
 -0.440000  0.440000  0.000000     12.000000
  0.480000  0.480000  0.000000      6.000000
 -0.480000  0.480000  0.000000     12.000000
  0.120000  0.080000  0.040000     24.000000
  0.160000  0.080000  0.040000     48.000000
  0.200000  0.080000  0.040000     48.000000
  0.240000  0.080000  0.040000     48.000000
  0.280000  0.080000  0.040000     48.000000
  0.320000  0.080000  0.040000     48.000000
  0.360000  0.080000  0.040000     48.000000
  0.400000  0.080000  0.040000     48.000000
  0.440000  0.080000  0.040000     48.000000
  0.480000  0.080000  0.040000     48.000000
 -0.480000  0.080000  0.040000     48.000000
  0.160000  0.120000  0.040000     24.000000
  0.200000  0.120000  0.040000     48.000000
  0.240000  0.120000  0.040000     48.000000
  0.280000  0.120000  0.040000     48.000000
  0.320000  0.120000  0.040000     48.000000
  0.360000  0.120000  0.040000     48.000000
  0.400000  0.120000  0.040000     48.000000
  0.440000  0.120000  0.040000     48.000000
  0.480000  0.120000  0.040000     48.000000
 -0.480000  0.120000  0.040000     48.000000
 -0.440000  0.120000  0.040000     48.000000
 -0.400000  0.120000  0.040000     48.000000
 -0.360000  0.120000  0.040000     48.000000
 -0.320000  0.120000  0.040000     48.000000
 -0.280000  0.120000  0.040000     48.000000
 -0.240000  0.120000  0.040000     48.000000
 -0.200000  0.120000  0.040000     48.000000
 -0.160000  0.120000  0.040000     48.000000
 -0.120000  0.120000  0.040000     48.000000
 -0.080000  0.120000  0.040000     24.000000
  0.200000  0.160000  0.040000     24.000000
  0.240000  0.160000  0.040000     48.000000
  0.280000  0.160000  0.040000     48.000000
  0.320000  0.160000  0.040000     48.000000
  0.360000  0.160000  0.040000     48.000000
  0.400000  0.160000  0.040000     48.000000
  0.440000  0.160000  0.040000     48.000000
  0.480000  0.160000  0.040000     48.000000
 -0.480000  0.160000  0.040000     48.000000
 -0.440000  0.160000  0.040000     48.000000
 -0.400000  0.160000  0.040000     48.000000
 -0.360000  0.160000  0.040000     48.000000
 -0.320000  0.160000  0.040000     48.000000
 -0.280000  0.160000  0.040000     48.000000
 -0.240000  0.160000  0.040000     48.000000
 -0.200000  0.160000  0.040000     48.000000
 -0.160000  0.160000  0.040000     48.000000
 -0.120000  0.160000  0.040000     24.000000
  0.240000  0.200000  0.040000     24.000000
  0.280000  0.200000  0.040000     48.000000
  0.320000  0.200000  0.040000     48.000000
  0.360000  0.200000  0.040000     48.000000
  0.400000  0.200000  0.040000     48.000000
  0.440000  0.200000  0.040000     48.000000
  0.480000  0.200000  0.040000     48.000000
 -0.480000  0.200000  0.040000     48.000000
 -0.440000  0.200000  0.040000     48.000000
 -0.400000  0.200000  0.040000     48.000000
 -0.360000  0.200000  0.040000     48.000000
 -0.320000  0.200000  0.040000     48.000000
 -0.280000  0.200000  0.040000     48.000000
 -0.240000  0.200000  0.040000     48.000000
 -0.200000  0.200000  0.040000     48.000000
 -0.160000  0.200000  0.040000     24.000000
  0.280000  0.240000  0.040000     24.000000
  0.320000  0.240000  0.040000     48.000000
  0.360000  0.240000  0.040000     48.000000
  0.400000  0.240000  0.040000     48.000000
  0.440000  0.240000  0.040000     48.000000
  0.480000  0.240000  0.040000     48.000000
 -0.480000  0.240000  0.040000     48.000000
 -0.440000  0.240000  0.040000     48.000000
 -0.400000  0.240000  0.040000     48.000000
 -0.360000  0.240000  0.040000     48.000000
 -0.320000  0.240000  0.040000     48.000000
 -0.280000  0.240000  0.040000     48.000000
 -0.240000  0.240000  0.040000     48.000000
 -0.200000  0.240000  0.040000     24.000000
  0.320000  0.280000  0.040000     24.000000
  0.360000  0.280000  0.040000     48.000000
  0.400000  0.280000  0.040000     48.000000
  0.440000  0.280000  0.040000     48.000000
  0.480000  0.280000  0.040000     48.000000
 -0.480000  0.280000  0.040000     48.000000
 -0.440000  0.280000  0.040000     48.000000
 -0.400000  0.280000  0.040000     48.000000
 -0.360000  0.280000  0.040000     48.000000
 -0.320000  0.280000  0.040000     48.000000
 -0.280000  0.280000  0.040000     48.000000
 -0.240000  0.280000  0.040000     24.000000
  0.360000  0.320000  0.040000     24.000000
  0.400000  0.320000  0.040000     48.000000
  0.440000  0.320000  0.040000     48.000000
  0.480000  0.320000  0.040000     48.000000
 -0.480000  0.320000  0.040000     48.000000
 -0.440000  0.320000  0.040000     48.000000
 -0.400000  0.320000  0.040000     48.000000
 -0.360000  0.320000  0.040000     48.000000
 -0.320000  0.320000  0.040000     48.000000
 -0.280000  0.320000  0.040000     24.000000
  0.400000  0.360000  0.040000     24.000000
  0.440000  0.360000  0.040000     48.000000
  0.480000  0.360000  0.040000     48.000000
 -0.480000  0.360000  0.040000     48.000000
 -0.440000  0.360000  0.040000     48.000000
 -0.400000  0.360000  0.040000     48.000000
 -0.360000  0.360000  0.040000     48.000000
 -0.320000  0.360000  0.040000     24.000000
  0.440000  0.400000  0.040000     24.000000
  0.480000  0.400000  0.040000     48.000000
 -0.480000  0.400000  0.040000     48.000000
 -0.440000  0.400000  0.040000     48.000000
 -0.400000  0.400000  0.040000     48.000000
 -0.360000  0.400000  0.040000     24.000000
  0.480000  0.440000  0.040000     24.000000
 -0.480000  0.440000  0.040000     48.000000
 -0.440000  0.440000  0.040000     48.000000
 -0.400000  0.440000  0.040000     24.000000
 -0.480000  0.480000  0.040000     24.000000
 -0.440000  0.480000  0.040000     24.000000
  0.240000  0.160000  0.080000     24.000000
  0.280000  0.160000  0.080000     48.000000
  0.320000  0.160000  0.080000     48.000000
  0.360000  0.160000  0.080000     48.000000
  0.400000  0.160000  0.080000     48.000000
  0.440000  0.160000  0.080000     48.000000
  0.480000  0.160000  0.080000     48.000000
 -0.480000  0.160000  0.080000     48.000000
 -0.440000  0.160000  0.080000     48.000000
  0.280000  0.200000  0.080000     24.000000
  0.320000  0.200000  0.080000     48.000000
  0.360000  0.200000  0.080000     48.000000
  0.400000  0.200000  0.080000     48.000000
  0.440000  0.200000  0.080000     48.000000
  0.480000  0.200000  0.080000     48.000000
 -0.480000  0.200000  0.080000     48.000000
 -0.440000  0.200000  0.080000     48.000000
 -0.400000  0.200000  0.080000     48.000000
 -0.360000  0.200000  0.080000     48.000000
 -0.320000  0.200000  0.080000     48.000000
 -0.280000  0.200000  0.080000     48.000000
 -0.240000  0.200000  0.080000     48.000000
 -0.200000  0.200000  0.080000     48.000000
 -0.160000  0.200000  0.080000     48.000000
 -0.120000  0.200000  0.080000     24.000000
  0.320000  0.240000  0.080000     24.000000
  0.360000  0.240000  0.080000     48.000000
  0.400000  0.240000  0.080000     48.000000
  0.440000  0.240000  0.080000     48.000000
  0.480000  0.240000  0.080000     48.000000
 -0.480000  0.240000  0.080000     48.000000
 -0.440000  0.240000  0.080000     48.000000
 -0.400000  0.240000  0.080000     48.000000
 -0.360000  0.240000  0.080000     48.000000
 -0.320000  0.240000  0.080000     48.000000
 -0.280000  0.240000  0.080000     48.000000
 -0.240000  0.240000  0.080000     48.000000
 -0.200000  0.240000  0.080000     48.000000
 -0.160000  0.240000  0.080000     24.000000
  0.360000  0.280000  0.080000     24.000000
  0.400000  0.280000  0.080000     48.000000
  0.440000  0.280000  0.080000     48.000000
  0.480000  0.280000  0.080000     48.000000
 -0.480000  0.280000  0.080000     48.000000
 -0.440000  0.280000  0.080000     48.000000
 -0.400000  0.280000  0.080000     48.000000
 -0.360000  0.280000  0.080000     48.000000
 -0.320000  0.280000  0.080000     48.000000
 -0.280000  0.280000  0.080000     48.000000
 -0.240000  0.280000  0.080000     48.000000
 -0.200000  0.280000  0.080000     24.000000
  0.400000  0.320000  0.080000     24.000000
  0.440000  0.320000  0.080000     48.000000
  0.480000  0.320000  0.080000     48.000000
 -0.480000  0.320000  0.080000     48.000000
 -0.440000  0.320000  0.080000     48.000000
 -0.400000  0.320000  0.080000     48.000000
 -0.360000  0.320000  0.080000     48.000000
 -0.320000  0.320000  0.080000     48.000000
 -0.280000  0.320000  0.080000     48.000000
 -0.240000  0.320000  0.080000     24.000000
  0.440000  0.360000  0.080000     24.000000
  0.480000  0.360000  0.080000     48.000000
 -0.480000  0.360000  0.080000     48.000000
 -0.440000  0.360000  0.080000     48.000000
 -0.400000  0.360000  0.080000     48.000000
 -0.360000  0.360000  0.080000     48.000000
 -0.320000  0.360000  0.080000     48.000000
 -0.280000  0.360000  0.080000     24.000000
  0.480000  0.400000  0.080000     24.000000
 -0.480000  0.400000  0.080000     48.000000
 -0.440000  0.400000  0.080000     48.000000
 -0.400000  0.400000  0.080000     48.000000
 -0.360000  0.400000  0.080000     48.000000
 -0.320000  0.400000  0.080000     24.000000
 -0.480000  0.440000  0.080000     24.000000
 -0.440000  0.440000  0.080000     48.000000
 -0.400000  0.440000  0.080000     48.000000
 -0.360000  0.440000  0.080000     24.000000
 -0.440000  0.480000  0.080000     24.000000
 -0.400000  0.480000  0.080000     24.000000
  0.360000  0.240000  0.120000     24.000000
  0.400000  0.240000  0.120000     48.000000
  0.440000  0.240000  0.120000     48.000000
  0.480000  0.240000  0.120000     48.000000
 -0.480000  0.240000  0.120000     48.000000
 -0.440000  0.240000  0.120000     48.000000
 -0.400000  0.240000  0.120000     48.000000
  0.400000  0.280000  0.120000     24.000000
  0.440000  0.280000  0.120000     48.000000
  0.480000  0.280000  0.120000     48.000000
 -0.480000  0.280000  0.120000     48.000000
 -0.440000  0.280000  0.120000     48.000000
 -0.400000  0.280000  0.120000     48.000000
 -0.360000  0.280000  0.120000     48.000000
 -0.320000  0.280000  0.120000     48.000000
 -0.280000  0.280000  0.120000     48.000000
 -0.240000  0.280000  0.120000     48.000000
 -0.200000  0.280000  0.120000     48.000000
 -0.160000  0.280000  0.120000     24.000000
  0.440000  0.320000  0.120000     24.000000
  0.480000  0.320000  0.120000     48.000000
 -0.480000  0.320000  0.120000     48.000000
 -0.440000  0.320000  0.120000     48.000000
 -0.400000  0.320000  0.120000     48.000000
 -0.360000  0.320000  0.120000     48.000000
 -0.320000  0.320000  0.120000     48.000000
 -0.280000  0.320000  0.120000     48.000000
 -0.240000  0.320000  0.120000     48.000000
 -0.200000  0.320000  0.120000     24.000000
  0.480000  0.360000  0.120000     24.000000
 -0.480000  0.360000  0.120000     48.000000
 -0.440000  0.360000  0.120000     48.000000
 -0.400000  0.360000  0.120000     48.000000
 -0.360000  0.360000  0.120000     48.000000
 -0.320000  0.360000  0.120000     48.000000
 -0.280000  0.360000  0.120000     48.000000
 -0.240000  0.360000  0.120000     24.000000
 -0.480000  0.400000  0.120000     24.000000
 -0.440000  0.400000  0.120000     48.000000
 -0.400000  0.400000  0.120000     48.000000
 -0.360000  0.400000  0.120000     48.000000
 -0.320000  0.400000  0.120000     48.000000
 -0.280000  0.400000  0.120000     24.000000
 -0.440000  0.440000  0.120000     24.000000
 -0.400000  0.440000  0.120000     48.000000
 -0.360000  0.440000  0.120000     48.000000
 -0.320000  0.440000  0.120000     24.000000
 -0.400000  0.480000  0.120000     24.000000
 -0.360000  0.480000  0.120000     24.000000
  0.480000  0.320000  0.160000     24.000000
 -0.480000  0.320000  0.160000     48.000000
 -0.440000  0.320000  0.160000     48.000000
 -0.400000  0.320000  0.160000     48.000000
 -0.360000  0.320000  0.160000     48.000000
 -0.480000  0.360000  0.160000     24.000000
 -0.440000  0.360000  0.160000     48.000000
 -0.400000  0.360000  0.160000     48.000000
 -0.360000  0.360000  0.160000     48.000000
 -0.320000  0.360000  0.160000     48.000000
 -0.280000  0.360000  0.160000     48.000000
 -0.240000  0.360000  0.160000     48.000000
 -0.200000  0.360000  0.160000     24.000000
 -0.440000  0.400000  0.160000     24.000000
 -0.400000  0.400000  0.160000     48.000000
 -0.360000  0.400000  0.160000     48.000000
 -0.320000  0.400000  0.160000     48.000000
 -0.280000  0.400000  0.160000     48.000000
 -0.240000  0.400000  0.160000     24.000000
 -0.400000  0.440000  0.160000     24.000000
 -0.360000  0.440000  0.160000     48.000000
 -0.320000  0.440000  0.160000     48.000000
 -0.280000  0.440000  0.160000     24.000000
 -0.360000  0.480000  0.160000     24.000000
 -0.320000  0.480000  0.160000     24.000000
 -0.400000  0.400000  0.200000     24.000000
 -0.360000  0.400000  0.200000     48.000000
 -0.320000  0.400000  0.200000     48.000000
 -0.360000  0.440000  0.200000     24.000000
 -0.320000  0.440000  0.200000     48.000000
 -0.280000  0.440000  0.200000     48.000000
 -0.240000  0.440000  0.200000     24.000000
 -0.320000  0.480000  0.200000     24.000000
 -0.280000  0.480000  0.200000     24.000000
 -0.280000  0.480000  0.240000     24.000000
 
 Following cartesian coordinates:
            Coordinates               Weight
  0.000000  0.000000  0.000000      1.000000
 -0.040000  0.040000  0.040000      8.000000
 -0.080000  0.080000  0.080000      8.000000
 -0.120000  0.120000  0.120000      8.000000
 -0.160000  0.160000  0.160000      8.000000
 -0.200000  0.200000  0.200000      8.000000
 -0.240000  0.240000  0.240000      8.000000
 -0.280000  0.280000  0.280000      8.000000
 -0.320000  0.320000  0.320000      8.000000
 -0.360000  0.360000  0.360000      8.000000
 -0.400000  0.400000  0.400000      8.000000
 -0.440000  0.440000  0.440000      8.000000
 -0.480000  0.480000  0.480000      8.000000
  0.000000  0.000000  0.080000      6.000000
 -0.040000  0.040000  0.120000     24.000000
 -0.080000  0.080000  0.160000     24.000000
 -0.120000  0.120000  0.200000     24.000000
 -0.160000  0.160000  0.240000     24.000000
 -0.200000  0.200000  0.280000     24.000000
 -0.240000  0.240000  0.320000     24.000000
 -0.280000  0.280000  0.360000     24.000000
 -0.320000  0.320000  0.400000     24.000000
 -0.360000  0.360000  0.440000     24.000000
 -0.400000  0.400000  0.480000     24.000000
 -0.440000  0.440000  0.520000     24.000000
  0.520000 -0.520000 -0.440000     24.000000
  0.480000 -0.480000 -0.400000     24.000000
  0.440000 -0.440000 -0.360000     24.000000
  0.400000 -0.400000 -0.320000     24.000000
  0.360000 -0.360000 -0.280000     24.000000
  0.320000 -0.320000 -0.240000     24.000000
  0.280000 -0.280000 -0.200000     24.000000
  0.240000 -0.240000 -0.160000     24.000000
  0.200000 -0.200000 -0.120000     24.000000
  0.160000 -0.160000 -0.080000     24.000000
  0.120000 -0.120000 -0.040000     24.000000
  0.080000 -0.080000  0.000000     12.000000
  0.000000  0.000000  0.160000      6.000000
 -0.040000  0.040000  0.200000     24.000000
 -0.080000  0.080000  0.240000     24.000000
 -0.120000  0.120000  0.280000     24.000000
 -0.160000  0.160000  0.320000     24.000000
 -0.200000  0.200000  0.360000     24.000000
 -0.240000  0.240000  0.400000     24.000000
 -0.280000  0.280000  0.440000     24.000000
 -0.320000  0.320000  0.480000     24.000000
 -0.360000  0.360000  0.520000     24.000000
 -0.400000  0.400000  0.560000     24.000000
  0.560000 -0.560000 -0.400000     24.000000
  0.520000 -0.520000 -0.360000     24.000000
  0.480000 -0.480000 -0.320000     24.000000
  0.440000 -0.440000 -0.280000     24.000000
  0.400000 -0.400000 -0.240000     24.000000
  0.360000 -0.360000 -0.200000     24.000000
  0.320000 -0.320000 -0.160000     24.000000
  0.280000 -0.280000 -0.120000     24.000000
  0.240000 -0.240000 -0.080000     24.000000
  0.200000 -0.200000 -0.040000     24.000000
  0.160000 -0.160000  0.000000     12.000000
  0.000000  0.000000  0.240000      6.000000
 -0.040000  0.040000  0.280000     24.000000
 -0.080000  0.080000  0.320000     24.000000
 -0.120000  0.120000  0.360000     24.000000
 -0.160000  0.160000  0.400000     24.000000
 -0.200000  0.200000  0.440000     24.000000
 -0.240000  0.240000  0.480000     24.000000
 -0.280000  0.280000  0.520000     24.000000
 -0.320000  0.320000  0.560000     24.000000
 -0.360000  0.360000  0.600000     24.000000
  0.600000 -0.600000 -0.360000     24.000000
  0.560000 -0.560000 -0.320000     24.000000
  0.520000 -0.520000 -0.280000     24.000000
  0.480000 -0.480000 -0.240000     24.000000
  0.440000 -0.440000 -0.200000     24.000000
  0.400000 -0.400000 -0.160000     24.000000
  0.360000 -0.360000 -0.120000     24.000000
  0.320000 -0.320000 -0.080000     24.000000
  0.280000 -0.280000 -0.040000     24.000000
  0.240000 -0.240000  0.000000     12.000000
  0.000000  0.000000  0.320000      6.000000
 -0.040000  0.040000  0.360000     24.000000
 -0.080000  0.080000  0.400000     24.000000
 -0.120000  0.120000  0.440000     24.000000
 -0.160000  0.160000  0.480000     24.000000
 -0.200000  0.200000  0.520000     24.000000
 -0.240000  0.240000  0.560000     24.000000
 -0.280000  0.280000  0.600000     24.000000
 -0.320000  0.320000  0.640000     24.000000
  0.640000 -0.640000 -0.320000     24.000000
  0.600000 -0.600000 -0.280000     24.000000
  0.560000 -0.560000 -0.240000     24.000000
  0.520000 -0.520000 -0.200000     24.000000
  0.480000 -0.480000 -0.160000     24.000000
  0.440000 -0.440000 -0.120000     24.000000
  0.400000 -0.400000 -0.080000     24.000000
  0.360000 -0.360000 -0.040000     24.000000
  0.320000 -0.320000  0.000000     12.000000
  0.000000  0.000000  0.400000      6.000000
 -0.040000  0.040000  0.440000     24.000000
 -0.080000  0.080000  0.480000     24.000000
 -0.120000  0.120000  0.520000     24.000000
 -0.160000  0.160000  0.560000     24.000000
 -0.200000  0.200000  0.600000     24.000000
 -0.240000  0.240000  0.640000     24.000000
 -0.280000  0.280000  0.680000     24.000000
  0.680000 -0.680000 -0.280000     24.000000
  0.640000 -0.640000 -0.240000     24.000000
  0.600000 -0.600000 -0.200000     24.000000
  0.560000 -0.560000 -0.160000     24.000000
  0.520000 -0.520000 -0.120000     24.000000
  0.480000 -0.480000 -0.080000     24.000000
  0.440000 -0.440000 -0.040000     24.000000
  0.400000 -0.400000  0.000000     12.000000
  0.000000  0.000000  0.480000      6.000000
 -0.040000  0.040000  0.520000     24.000000
 -0.080000  0.080000  0.560000     24.000000
 -0.120000  0.120000  0.600000     24.000000
 -0.160000  0.160000  0.640000     24.000000
 -0.200000  0.200000  0.680000     24.000000
 -0.240000  0.240000  0.720000     24.000000
  0.720000 -0.720000 -0.240000     24.000000
  0.680000 -0.680000 -0.200000     24.000000
  0.640000 -0.640000 -0.160000     24.000000
  0.600000 -0.600000 -0.120000     24.000000
  0.560000 -0.560000 -0.080000     24.000000
  0.520000 -0.520000 -0.040000     24.000000
  0.480000 -0.480000  0.000000     12.000000
  0.000000  0.000000  0.560000      6.000000
 -0.040000  0.040000  0.600000     24.000000
 -0.080000  0.080000  0.640000     24.000000
 -0.120000  0.120000  0.680000     24.000000
 -0.160000  0.160000  0.720000     24.000000
 -0.200000  0.200000  0.760000     24.000000
  0.760000 -0.760000 -0.200000     24.000000
  0.720000 -0.720000 -0.160000     24.000000
  0.680000 -0.680000 -0.120000     24.000000
  0.640000 -0.640000 -0.080000     24.000000
  0.600000 -0.600000 -0.040000     24.000000
  0.560000 -0.560000  0.000000     12.000000
  0.000000  0.000000  0.640000      6.000000
 -0.040000  0.040000  0.680000     24.000000
 -0.080000  0.080000  0.720000     24.000000
 -0.120000  0.120000  0.760000     24.000000
 -0.160000  0.160000  0.800000     24.000000
  0.800000 -0.800000 -0.160000     24.000000
  0.760000 -0.760000 -0.120000     24.000000
  0.720000 -0.720000 -0.080000     24.000000
  0.680000 -0.680000 -0.040000     24.000000
  0.640000 -0.640000  0.000000     12.000000
  0.000000  0.000000  0.720000      6.000000
 -0.040000  0.040000  0.760000     24.000000
 -0.080000  0.080000  0.800000     24.000000
 -0.120000  0.120000  0.840000     24.000000
  0.840000 -0.840000 -0.120000     24.000000
  0.800000 -0.800000 -0.080000     24.000000
  0.760000 -0.760000 -0.040000     24.000000
  0.720000 -0.720000  0.000000     12.000000
  0.000000  0.000000  0.800000      6.000000
 -0.040000  0.040000  0.840000     24.000000
 -0.080000  0.080000  0.880000     24.000000
  0.880000 -0.880000 -0.080000     24.000000
  0.840000 -0.840000 -0.040000     24.000000
  0.800000 -0.800000  0.000000     12.000000
  0.000000  0.000000  0.880000      6.000000
 -0.040000  0.040000  0.920000     24.000000
  0.920000 -0.920000 -0.040000     24.000000
  0.880000 -0.880000 -0.000000     12.000000
  0.000000  0.000000  0.960000      6.000000
  0.960000 -0.960000  0.000000     12.000000
 -0.000000  0.080000  0.160000     24.000000
 -0.040000  0.120000  0.200000     48.000000
 -0.080000  0.160000  0.240000     48.000000
 -0.120000  0.200000  0.280000     48.000000
 -0.160000  0.240000  0.320000     48.000000
 -0.200000  0.280000  0.360000     48.000000
 -0.240000  0.320000  0.400000     48.000000
 -0.280000  0.360000  0.440000     48.000000
 -0.320000  0.400000  0.480000     48.000000
 -0.360000  0.440000  0.520000     48.000000
  0.600000 -0.520000 -0.440000     48.000000
  0.000000  0.080000  0.240000     24.000000
 -0.040000  0.120000  0.280000     48.000000
 -0.080000  0.160000  0.320000     48.000000
 -0.120000  0.200000  0.360000     48.000000
 -0.160000  0.240000  0.400000     48.000000
 -0.200000  0.280000  0.440000     48.000000
 -0.240000  0.320000  0.480000     48.000000
 -0.280000  0.360000  0.520000     48.000000
 -0.320000  0.400000  0.560000     48.000000
  0.640000 -0.560000 -0.400000     48.000000
  0.600000 -0.520000 -0.360000     48.000000
  0.560000 -0.480000 -0.320000     48.000000
  0.520000 -0.440000 -0.280000     48.000000
  0.480000 -0.400000 -0.240000     48.000000
  0.440000 -0.360000 -0.200000     48.000000
  0.400000 -0.320000 -0.160000     48.000000
  0.360000 -0.280000 -0.120000     48.000000
  0.320000 -0.240000 -0.080000     48.000000
  0.280000 -0.200000 -0.040000     48.000000
  0.240000 -0.160000  0.000000     24.000000
 -0.000000  0.080000  0.320000     24.000000
 -0.040000  0.120000  0.360000     48.000000
 -0.080000  0.160000  0.400000     48.000000
 -0.120000  0.200000  0.440000     48.000000
 -0.160000  0.240000  0.480000     48.000000
 -0.200000  0.280000  0.520000     48.000000
 -0.240000  0.320000  0.560000     48.000000
 -0.280000  0.360000  0.600000     48.000000
  0.680000 -0.600000 -0.360000     48.000000
  0.640000 -0.560000 -0.320000     48.000000
  0.600000 -0.520000 -0.280000     48.000000
  0.560000 -0.480000 -0.240000     48.000000
  0.520000 -0.440000 -0.200000     48.000000
  0.480000 -0.400000 -0.160000     48.000000
  0.440000 -0.360000 -0.120000     48.000000
  0.400000 -0.320000 -0.080000     48.000000
  0.360000 -0.280000 -0.040000     48.000000
  0.320000 -0.240000 -0.000000     24.000000
 -0.000000  0.080000  0.400000     24.000000
 -0.040000  0.120000  0.440000     48.000000
 -0.080000  0.160000  0.480000     48.000000
 -0.120000  0.200000  0.520000     48.000000
 -0.160000  0.240000  0.560000     48.000000
 -0.200000  0.280000  0.600000     48.000000
 -0.240000  0.320000  0.640000     48.000000
  0.720000 -0.640000 -0.320000     48.000000
  0.680000 -0.600000 -0.280000     48.000000
  0.640000 -0.560000 -0.240000     48.000000
  0.600000 -0.520000 -0.200000     48.000000
  0.560000 -0.480000 -0.160000     48.000000
  0.520000 -0.440000 -0.120000     48.000000
  0.480000 -0.400000 -0.080000     48.000000
  0.440000 -0.360000 -0.040000     48.000000
  0.400000 -0.320000  0.000000     24.000000
 -0.000000  0.080000  0.480000     24.000000
 -0.040000  0.120000  0.520000     48.000000
 -0.080000  0.160000  0.560000     48.000000
 -0.120000  0.200000  0.600000     48.000000
 -0.160000  0.240000  0.640000     48.000000
 -0.200000  0.280000  0.680000     48.000000
  0.760000 -0.680000 -0.280000     48.000000
  0.720000 -0.640000 -0.240000     48.000000
  0.680000 -0.600000 -0.200000     48.000000
  0.640000 -0.560000 -0.160000     48.000000
  0.600000 -0.520000 -0.120000     48.000000
  0.560000 -0.480000 -0.080000     48.000000
  0.520000 -0.440000 -0.040000     48.000000
  0.480000 -0.400000  0.000000     24.000000
  0.000000  0.080000  0.560000     24.000000
 -0.040000  0.120000  0.600000     48.000000
 -0.080000  0.160000  0.640000     48.000000
 -0.120000  0.200000  0.680000     48.000000
 -0.160000  0.240000  0.720000     48.000000
  0.800000 -0.720000 -0.240000     48.000000
  0.760000 -0.680000 -0.200000     48.000000
  0.720000 -0.640000 -0.160000     48.000000
  0.680000 -0.600000 -0.120000     48.000000
  0.640000 -0.560000 -0.080000     48.000000
  0.600000 -0.520000 -0.040000     48.000000
  0.560000 -0.480000  0.000000     24.000000
 -0.000000  0.080000  0.640000     24.000000
 -0.040000  0.120000  0.680000     48.000000
 -0.080000  0.160000  0.720000     48.000000
 -0.120000  0.200000  0.760000     48.000000
  0.840000 -0.760000 -0.200000     48.000000
  0.800000 -0.720000 -0.160000     48.000000
  0.760000 -0.680000 -0.120000     48.000000
  0.720000 -0.640000 -0.080000     48.000000
  0.680000 -0.600000 -0.040000     48.000000
  0.640000 -0.560000 -0.000000     24.000000
  0.000000  0.080000  0.720000     24.000000
 -0.040000  0.120000  0.760000     48.000000
 -0.080000  0.160000  0.800000     48.000000
  0.880000 -0.800000 -0.160000     48.000000
  0.840000 -0.760000 -0.120000     48.000000
  0.800000 -0.720000 -0.080000     48.000000
  0.760000 -0.680000 -0.040000     48.000000
  0.720000 -0.640000  0.000000     24.000000
 -0.000000  0.080000  0.800000     24.000000
 -0.040000  0.120000  0.840000     48.000000
  0.920000 -0.840000 -0.120000     48.000000
  0.880000 -0.800000 -0.080000     48.000000
  0.840000 -0.760000 -0.040000     48.000000
  0.800000 -0.720000 -0.000000     24.000000
  0.000000  0.080000  0.880000     24.000000
  0.960000 -0.880000 -0.080000     48.000000
  0.920000 -0.840000 -0.040000     48.000000
  0.880000 -0.800000  0.000000     24.000000
  1.000000 -0.920000 -0.040000     24.000000
  0.960000 -0.880000 -0.000000     24.000000
 -0.000000  0.160000  0.320000     24.000000
 -0.040000  0.200000  0.360000     48.000000
 -0.080000  0.240000  0.400000     48.000000
 -0.120000  0.280000  0.440000     48.000000
 -0.160000  0.320000  0.480000     48.000000
 -0.200000  0.360000  0.520000     48.000000
 -0.240000  0.400000  0.560000     48.000000
  0.720000 -0.560000 -0.400000     48.000000
  0.680000 -0.520000 -0.360000     48.000000
  0.000000  0.160000  0.400000     24.000000
 -0.040000  0.200000  0.440000     48.000000
 -0.080000  0.240000  0.480000     48.000000
 -0.120000  0.280000  0.520000     48.000000
 -0.160000  0.320000  0.560000     48.000000
 -0.200000  0.360000  0.600000     48.000000
  0.760000 -0.600000 -0.360000     48.000000
  0.720000 -0.560000 -0.320000     48.000000
  0.680000 -0.520000 -0.280000     48.000000
  0.640000 -0.480000 -0.240000     48.000000
  0.600000 -0.440000 -0.200000     48.000000
  0.560000 -0.400000 -0.160000     48.000000
  0.520000 -0.360000 -0.120000     48.000000
  0.480000 -0.320000 -0.080000     48.000000
  0.440000 -0.280000 -0.040000     48.000000
  0.400000 -0.240000  0.000000     24.000000
  0.000000  0.160000  0.480000     24.000000
 -0.040000  0.200000  0.520000     48.000000
 -0.080000  0.240000  0.560000     48.000000
 -0.120000  0.280000  0.600000     48.000000
 -0.160000  0.320000  0.640000     48.000000
  0.800000 -0.640000 -0.320000     48.000000
  0.760000 -0.600000 -0.280000     48.000000
  0.720000 -0.560000 -0.240000     48.000000
  0.680000 -0.520000 -0.200000     48.000000
  0.640000 -0.480000 -0.160000     48.000000
  0.600000 -0.440000 -0.120000     48.000000
  0.560000 -0.400000 -0.080000     48.000000
  0.520000 -0.360000 -0.040000     48.000000
  0.480000 -0.320000  0.000000     24.000000
 -0.000000  0.160000  0.560000     24.000000
 -0.040000  0.200000  0.600000     48.000000
 -0.080000  0.240000  0.640000     48.000000
 -0.120000  0.280000  0.680000     48.000000
  0.840000 -0.680000 -0.280000     48.000000
  0.800000 -0.640000 -0.240000     48.000000
  0.760000 -0.600000 -0.200000     48.000000
  0.720000 -0.560000 -0.160000     48.000000
  0.680000 -0.520000 -0.120000     48.000000
  0.640000 -0.480000 -0.080000     48.000000
  0.600000 -0.440000 -0.040000     48.000000
  0.560000 -0.400000  0.000000     24.000000
 -0.000000  0.160000  0.640000     24.000000
 -0.040000  0.200000  0.680000     48.000000
 -0.080000  0.240000  0.720000     48.000000
  0.880000 -0.720000 -0.240000     48.000000
  0.840000 -0.680000 -0.200000     48.000000
  0.800000 -0.640000 -0.160000     48.000000
  0.760000 -0.600000 -0.120000     48.000000
  0.720000 -0.560000 -0.080000     48.000000
  0.680000 -0.520000 -0.040000     48.000000
  0.640000 -0.480000 -0.000000     24.000000
  0.000000  0.160000  0.720000     24.000000
 -0.040000  0.200000  0.760000     48.000000
  0.920000 -0.760000 -0.200000     48.000000
  0.880000 -0.720000 -0.160000     48.000000
  0.840000 -0.680000 -0.120000     48.000000
  0.800000 -0.640000 -0.080000     48.000000
  0.760000 -0.600000 -0.040000     48.000000
  0.720000 -0.560000  0.000000     24.000000
  0.000000  0.160000  0.800000     24.000000
  0.960000 -0.800000 -0.160000     48.000000
  0.920000 -0.760000 -0.120000     48.000000
  0.880000 -0.720000 -0.080000     48.000000
  0.840000 -0.680000 -0.040000     48.000000
  0.800000 -0.640000  0.000000     24.000000
  1.000000 -0.840000 -0.120000     24.000000
  0.960000 -0.800000 -0.080000     48.000000
  0.920000 -0.760000 -0.040000     48.000000
  0.880000 -0.720000 -0.000000     24.000000
  1.000000 -0.840000 -0.040000     24.000000
  0.960000 -0.800000 -0.000000     24.000000
  0.000000  0.240000  0.480000     24.000000
 -0.040000  0.280000  0.520000     48.000000
 -0.080000  0.320000  0.560000     48.000000
 -0.120000  0.360000  0.600000     48.000000
  0.840000 -0.600000 -0.360000     48.000000
  0.800000 -0.560000 -0.320000     48.000000
  0.760000 -0.520000 -0.280000     48.000000
  0.000000  0.240000  0.560000     24.000000
 -0.040000  0.280000  0.600000     48.000000
 -0.080000  0.320000  0.640000     48.000000
  0.880000 -0.640000 -0.320000     48.000000
  0.840000 -0.600000 -0.280000     48.000000
  0.800000 -0.560000 -0.240000     48.000000
  0.760000 -0.520000 -0.200000     48.000000
  0.720000 -0.480000 -0.160000     48.000000
  0.680000 -0.440000 -0.120000     48.000000
  0.640000 -0.400000 -0.080000     48.000000
  0.600000 -0.360000 -0.040000     48.000000
  0.560000 -0.320000  0.000000     24.000000
  0.000000  0.240000  0.640000     24.000000
 -0.040000  0.280000  0.680000     48.000000
  0.920000 -0.680000 -0.280000     48.000000
  0.880000 -0.640000 -0.240000     48.000000
  0.840000 -0.600000 -0.200000     48.000000
  0.800000 -0.560000 -0.160000     48.000000
  0.760000 -0.520000 -0.120000     48.000000
  0.720000 -0.480000 -0.080000     48.000000
  0.680000 -0.440000 -0.040000     48.000000
  0.640000 -0.400000 -0.000000     24.000000
  0.000000  0.240000  0.720000     24.000000
  0.960000 -0.720000 -0.240000     48.000000
  0.920000 -0.680000 -0.200000     48.000000
  0.880000 -0.640000 -0.160000     48.000000
  0.840000 -0.600000 -0.120000     48.000000
  0.800000 -0.560000 -0.080000     48.000000
  0.760000 -0.520000 -0.040000     48.000000
  0.720000 -0.480000  0.000000     24.000000
  1.000000 -0.760000 -0.200000     24.000000
  0.960000 -0.720000 -0.160000     48.000000
  0.920000 -0.680000 -0.120000     48.000000
  0.880000 -0.640000 -0.080000     48.000000
  0.840000 -0.600000 -0.040000     48.000000
  0.800000 -0.560000 -0.000000     24.000000
  1.000000 -0.760000 -0.120000     24.000000
  0.960000 -0.720000 -0.080000     48.000000
  0.920000 -0.680000 -0.040000     48.000000
  0.880000 -0.640000 -0.000000     24.000000
  1.000000 -0.760000 -0.040000     24.000000
  0.960000 -0.720000 -0.000000     24.000000
  0.000000  0.320000  0.640000     24.000000
  0.960000 -0.640000 -0.320000     48.000000
  0.920000 -0.600000 -0.280000     48.000000
  0.880000 -0.560000 -0.240000     48.000000
  0.840000 -0.520000 -0.200000     48.000000
  1.000000 -0.680000 -0.280000     24.000000
  0.960000 -0.640000 -0.240000     48.000000
  0.920000 -0.600000 -0.200000     48.000000
  0.880000 -0.560000 -0.160000     48.000000
  0.840000 -0.520000 -0.120000     48.000000
  0.800000 -0.480000 -0.080000     48.000000
  0.760000 -0.440000 -0.040000     48.000000
  0.720000 -0.400000  0.000000     24.000000
  1.000000 -0.680000 -0.200000     24.000000
  0.960000 -0.640000 -0.160000     48.000000
  0.920000 -0.600000 -0.120000     48.000000
  0.880000 -0.560000 -0.080000     48.000000
  0.840000 -0.520000 -0.040000     48.000000
  0.800000 -0.480000  0.000000     24.000000
  1.000000 -0.680000 -0.120000     24.000000
  0.960000 -0.640000 -0.080000     48.000000
  0.920000 -0.600000 -0.040000     48.000000
  0.880000 -0.560000 -0.000000     24.000000
  1.000000 -0.680000 -0.040000     24.000000
  0.960000 -0.640000 -0.000000     24.000000
  1.000000 -0.600000 -0.200000     24.000000
  0.960000 -0.560000 -0.160000     48.000000
  0.920000 -0.520000 -0.120000     48.000000
  1.000000 -0.600000 -0.120000     24.000000
  0.960000 -0.560000 -0.080000     48.000000
  0.920000 -0.520000 -0.040000     48.000000
  0.880000 -0.480000  0.000000     24.000000
  1.000000 -0.600000 -0.040000     24.000000
  0.960000 -0.560000  0.000000     24.000000
  1.000000 -0.520000 -0.040000     24.000000
 
 TETIRR: Found   2119 inequivalent tetrahedra from    93750

 ----------------------------------------------------------------------------- 
|                                                                             |
|           W    W    AA    RRRRR   N    N  II  N    N   GGGG   !!!           |
|           W    W   A  A   R    R  NN   N  II  NN   N  G    G  !!!           |
|           W    W  A    A  R    R  N N  N  II  N N  N  G       !!!           |
|           W WW W  AAAAAA  RRRRR   N  N N  II  N  N N  G  GGG   !            |
|           WW  WW  A    A  R   R   N   NN  II  N   NN  G    G                |
|           W    W  A    A  R    R  N    N  II  N    N   GGGG   !!!           |
|                                                                             |
|      The number of bands has been changed from the values supplied          |
|      in the INCAR file. This is a result of running the parallel version.   |
|      The orbitals not found in the WAVECAR file will be initialized with    |
|      random numbers, which is usually adequate. For correlated              |
|      calculations, however, you should redo the groundstate calculation.    |
|      I found NBANDS    =       50  now  NBANDS  =      52                   |
|                                                                             |
 ----------------------------------------------------------------------------- 



--------------------------------------------------------------------------------------------------------




 Dimension of arrays:
   k-points           NKPTS =    455   k-points in BZ     NKDIM =    455   number of bands    NBANDS=     52
   number of dos      NEDOS =   5000   number of ions     NIONS =      2
   non local maximal  LDIM  =      6   non local SUM 2l+1 LMDIM =     18
   total plane-waves  NPLWV =  13824
   max r-space proj   IRMAX =      1   max aug-charges    IRDMAX=  28147
   dimension x,y,z NGX =    24 NGY =   24 NGZ =   24
   dimension x,y,z NGXF=    48 NGYF=   48 NGZF=   48
   support grid    NGXF=    48 NGYF=   48 NGZF=   48
   ions per type =               1   1
 NGX,Y,Z   is equivalent  to a cutoff of  13.86, 13.86, 13.86 a.u.
 NGXF,Y,Z  is equivalent  to a cutoff of  27.72, 27.72, 27.72 a.u.


 I would recommend the setting:
   dimension x,y,z NGX =    23 NGY =   23 NGZ =   23
 SYSTEM =  unknown system                          
 POSCAR =  VN                                      

 Startparameter for this run:
   NWRITE =      2    write-flag & timer
   PREC   = accura    normal or accurate (medium, high low for compatibility)
   ISTART =      0    job   : 0-new  1-cont  2-samecut
   ICHARG =      2    charge: 1-file 2-atom 10-const
   ISPIN  =      1    spin polarized calculation?
   LNONCOLLINEAR =      F non collinear calculations
   LSORBIT =      F    spin-orbit coupling
   INIWAV =      1    electr: 0-lowe 1-rand  2-diag
   LASPH  =      F    aspherical Exc in radial PAW
   METAGGA=      F    non-selfconsistent MetaGGA calc.

 Electronic Relaxation 1
   ENCUT  =  600.0 eV  44.10 Ry    6.64 a.u.   5.75  5.75  5.75*2*pi/ulx,y,z
   ENINI  =  600.0     initial cutoff
   ENAUG  =  526.6 eV  augmentation charge cutoff
   NELM   =     99;   NELMIN=  2; NELMDL= -5     # of ELM steps 
   EDIFF  = 0.1E-05   stopping-criterion for ELM
   LREAL  =      F    real-space projection
   NLSPLINE    = F    spline interpolate recip. space projectors
   LCOMPAT=      F    compatible to vasp.4.4
   GGA_COMPAT  = T    GGA compatible to vasp.4.4-vasp.4.6
   LMAXPAW     = -100 max onsite density
   LMAXMIX     =    2 max onsite mixed and CHGCAR
   VOSKOWN=      0    Vosko Wilk Nusair interpolation
   ROPT   =    0.00000   0.00000
 Ionic relaxation
   EDIFFG = 0.1E-05   stopping-criterion for IOM
   NSW    =      0    number of steps for IOM
   NBLOCK =      1;   KBLOCK =      1    inner block; outer block 
   IBRION =     -1    ionic relax: 0-MD 1-quasi-New 2-CG
   NFREE  =      1    steps in history (QN), initial steepest desc. (CG)
   ISIF   =      3    stress and relaxation
   IWAVPR =     10    prediction:  0-non 1-charg 2-wave 3-comb
   ISYM   =      2    0-nonsym 1-usesym 2-fastsym
   LCORR  =      T    Harris-Foulkes like correction to forces

   POTIM  = 0.2000    time-step for ionic-motion
   TEIN   =    0.0    initial temperature
   TEBEG  =    0.0;   TEEND  =   0.0 temperature during run
   SMASS  =  -3.00    Nose mass-parameter (am)
   estimated Nose-frequenzy (Omega)   =  0.10E-29 period in steps =****** mass=  -0.189E-27a.u.
   SCALEE = 1.0000    scale energy and forces
   NPACO  =    256;   APACO  = 16.0  distance and # of slots for P.C.
   PSTRESS=    0.0 pullay stress

  Mass of Ions in am
   POMASS =  50.94 14.00
  Ionic Valenz
   ZVAL   =  13.00  5.00
  Atomic Wigner-Seitz radii
   RWIGS  =  -1.00 -1.00
  virtual crystal weights 
   VCA    =   1.00  1.00
   NELECT =      18.0000    total number of electrons
   NUPDOWN=      -1.0000    fix difference up-down

 DOS related values:
   EMIN   =  10.00;   EMAX   =-10.00  energy-range for DOS
   EFERMI =   0.00
   ISMEAR =    -5;   SIGMA  =   0.20  broadening in eV -4-tet -1-fermi 0-gaus

 Electronic relaxation 2 (details)
   IALGO  =     68    algorithm
   LDIAG  =      T    sub-space diagonalisation (order eigenvalues)
   LSUBROT=      F    optimize rotation matrix (better conditioning)
   TURBO    =      0    0=normal 1=particle mesh
   IRESTART =      0    0=no restart 2=restart with 2 vectors
   NREBOOT  =      0    no. of reboots
   NMIN     =      0    reboot dimension
   EREF     =   0.00    reference energy to select bands
   IMIX   =      4    mixing-type and parameters
     AMIX     =   0.40;   BMIX     =  1.00
     AMIX_MAG =   1.60;   BMIX_MAG =  1.00
     AMIN     =   0.10
     WC   =   100.;   INIMIX=   1;  MIXPRE=   1;  MAXMIX= -45

 Intra band minimization:
   WEIMIN = 0.0000     energy-eigenvalue tresh-hold
   EBREAK =  0.48E-09  absolut break condition
   DEPER  =   0.30     relativ break condition  

   TIME   =   0.40     timestep for ELM

  volume/ion in A,a.u.               =       8.43        56.89
  Fermi-wavevector in a.u.,A,eV,Ry     =   1.673170  3.161833 38.089475  2.799497
  Thomas-Fermi vector in A             =   2.758188
 
 Write flags
   LWAVE  =      F    write WAVECAR
   LCHARG =      F    write CHGCAR
   LVTOT  =      F    write LOCPOT, total local potential
   LVHAR  =      F    write LOCPOT, Hartree potential only
   LELF   =      F    write electronic localiz. function (ELF)
   LORBIT =     11    0 simple, 1 ext, 2 COOP (PROOUT)


 Dipole corrections
   LMONO  =      F    monopole corrections only (constant potential shift)
   LDIPOL =      F    correct potential (dipole corrections)
   IDIPOL =      0    1-x, 2-y, 3-z, 4-all directions 
   EPSILON=  1.0000000 bulk dielectric constant

 Exchange correlation treatment:
   GGA     =    AM    GGA type
   LEXCH   =    13    internal setting for exchange type
   VOSKOWN=      0    Vosko Wilk Nusair interpolation
   LHFCALC =     F    Hartree Fock is set to
   LHFONE  =     F    Hartree Fock one center treatment
   AEXX    =    0.0000 exact exchange contribution

 Linear response parameters
   LEPSILON=     F    determine dielectric tensor
   LRPA    =     F    only Hartree local field effects (RPA)
   LNABLA  =     F    use nabla operator in PAW spheres
   LVEL    =     F    velocity operator in full k-point grid
   LINTERFAST=   F  fast interpolation
   KINTER  =     0    interpolate to denser k-point grid
   CSHIFT  =0.1000    complex shift for real part using Kramers Kronig
   OMEGAMAX=  -1.0    maximum frequency
   DEG_THRESHOLD= 0.2000000E-02 threshold for treating states as degnerate
   RTIME   =    0.100 relaxation time in fs

 Orbital magnetization related:
   ORBITALMAG=     F  switch on orbital magnetization
   LCHIMAG   =     F  perturbation theory with respect to B field
   DQ        =  0.001000  dq finite difference perturbation B field



--------------------------------------------------------------------------------------------------------


 Static calculation
 charge density and potential will be updated during run
 non-spin polarized calculation
 RMM-DIIS sequential band-by-band and
  variant of blocked Davidson during initial phase
 perform sub-space diagonalisation
    before iterative eigenvector-optimisation
 modified Broyden-mixing scheme, WC =      100.0
 initial mixing is a Kerker type mixing with AMIX =  0.4000 and BMIX =      1.0000
 Hartree-type preconditioning will be used
 using additional bands           43
 reciprocal scheme for non local part
 use partial core corrections
 calculate Harris-corrections to forces 
   (improved forces if not selfconsistent)
 use gradient corrections 
 use of overlap-Matrix (Vanderbilt PP)
 Fermi weights with tetrahedron method with Bloechl corrections


--------------------------------------------------------------------------------------------------------


  energy-cutoff  :      600.00
  volume of cell :       16.86
      direct lattice vectors                 reciprocal lattice vectors
     0.000000000  2.035240000  2.035240000    -0.245671272  0.245671272  0.245671272
     2.035240000  0.000000000  2.035240000     0.245671272 -0.245671272  0.245671272
     2.035240000  2.035240000  0.000000000     0.245671272  0.245671272 -0.245671272

  length of vectors
     2.878264011  2.878264011  2.878264011     0.425515125  0.425515125  0.425515125


 
 k-points in units of 2pi/SCALE and weight: Automatic mesh                          
   0.00000000  0.00000000  0.00000000       0.000
  -0.04000000  0.04000000  0.04000000       0.001
  -0.08000000  0.08000000  0.08000000       0.001
  -0.12000000  0.12000000  0.12000000       0.001
  -0.16000000  0.16000000  0.16000000       0.001
  -0.20000000  0.20000000  0.20000000       0.001
  -0.24000000  0.24000000  0.24000000       0.001
  -0.28000000  0.28000000  0.28000000       0.001
  -0.32000000  0.32000000  0.32000000       0.001
  -0.36000000  0.36000000  0.36000000       0.001
  -0.40000000  0.40000000  0.40000000       0.001
  -0.44000000  0.44000000  0.44000000       0.001
  -0.48000000  0.48000000  0.48000000       0.001
   0.00000000  0.00000000  0.08000000       0.000
  -0.04000000  0.04000000  0.12000000       0.002
  -0.08000000  0.08000000  0.16000000       0.002
  -0.12000000  0.12000000  0.20000000       0.002
  -0.16000000  0.16000000  0.24000000       0.002
  -0.20000000  0.20000000  0.28000000       0.002
  -0.24000000  0.24000000  0.32000000       0.002
  -0.28000000  0.28000000  0.36000000       0.002
  -0.32000000  0.32000000  0.40000000       0.002
  -0.36000000  0.36000000  0.44000000       0.002
  -0.40000000  0.40000000  0.48000000       0.002
  -0.44000000  0.44000000  0.52000000       0.002
   0.52000000 -0.52000000 -0.44000000       0.002
   0.48000000 -0.48000000 -0.40000000       0.002
   0.44000000 -0.44000000 -0.36000000       0.002
   0.40000000 -0.40000000 -0.32000000       0.002
   0.36000000 -0.36000000 -0.28000000       0.002
   0.32000000 -0.32000000 -0.24000000       0.002
   0.28000000 -0.28000000 -0.20000000       0.002
   0.24000000 -0.24000000 -0.16000000       0.002
   0.20000000 -0.20000000 -0.12000000       0.002
   0.16000000 -0.16000000 -0.08000000       0.002
   0.12000000 -0.12000000 -0.04000000       0.002
   0.08000000 -0.08000000  0.00000000       0.001
   0.00000000  0.00000000  0.16000000       0.000
  -0.04000000  0.04000000  0.20000000       0.002
  -0.08000000  0.08000000  0.24000000       0.002
  -0.12000000  0.12000000  0.28000000       0.002
  -0.16000000  0.16000000  0.32000000       0.002
  -0.20000000  0.20000000  0.36000000       0.002
  -0.24000000  0.24000000  0.40000000       0.002
  -0.28000000  0.28000000  0.44000000       0.002
  -0.32000000  0.32000000  0.48000000       0.002
  -0.36000000  0.36000000  0.52000000       0.002
  -0.40000000  0.40000000  0.56000000       0.002
   0.56000000 -0.56000000 -0.40000000       0.002
   0.52000000 -0.52000000 -0.36000000       0.002
   0.48000000 -0.48000000 -0.32000000       0.002
   0.44000000 -0.44000000 -0.28000000       0.002
   0.40000000 -0.40000000 -0.24000000       0.002
   0.36000000 -0.36000000 -0.20000000       0.002
   0.32000000 -0.32000000 -0.16000000       0.002
   0.28000000 -0.28000000 -0.12000000       0.002
   0.24000000 -0.24000000 -0.08000000       0.002
   0.20000000 -0.20000000 -0.04000000       0.002
   0.16000000 -0.16000000  0.00000000       0.001
   0.00000000  0.00000000  0.24000000       0.000
  -0.04000000  0.04000000  0.28000000       0.002
  -0.08000000  0.08000000  0.32000000       0.002
  -0.12000000  0.12000000  0.36000000       0.002
  -0.16000000  0.16000000  0.40000000       0.002
  -0.20000000  0.20000000  0.44000000       0.002
  -0.24000000  0.24000000  0.48000000       0.002
  -0.28000000  0.28000000  0.52000000       0.002
  -0.32000000  0.32000000  0.56000000       0.002
  -0.36000000  0.36000000  0.60000000       0.002
   0.60000000 -0.60000000 -0.36000000       0.002
   0.56000000 -0.56000000 -0.32000000       0.002
   0.52000000 -0.52000000 -0.28000000       0.002
   0.48000000 -0.48000000 -0.24000000       0.002
   0.44000000 -0.44000000 -0.20000000       0.002
   0.40000000 -0.40000000 -0.16000000       0.002
   0.36000000 -0.36000000 -0.12000000       0.002
   0.32000000 -0.32000000 -0.08000000       0.002
   0.28000000 -0.28000000 -0.04000000       0.002
   0.24000000 -0.24000000  0.00000000       0.001
   0.00000000  0.00000000  0.32000000       0.000
  -0.04000000  0.04000000  0.36000000       0.002
  -0.08000000  0.08000000  0.40000000       0.002
  -0.12000000  0.12000000  0.44000000       0.002
  -0.16000000  0.16000000  0.48000000       0.002
  -0.20000000  0.20000000  0.52000000       0.002
  -0.24000000  0.24000000  0.56000000       0.002
  -0.28000000  0.28000000  0.60000000       0.002
  -0.32000000  0.32000000  0.64000000       0.002
   0.64000000 -0.64000000 -0.32000000       0.002
   0.60000000 -0.60000000 -0.28000000       0.002
   0.56000000 -0.56000000 -0.24000000       0.002
   0.52000000 -0.52000000 -0.20000000       0.002
   0.48000000 -0.48000000 -0.16000000       0.002
   0.44000000 -0.44000000 -0.12000000       0.002
   0.40000000 -0.40000000 -0.08000000       0.002
   0.36000000 -0.36000000 -0.04000000       0.002
   0.32000000 -0.32000000  0.00000000       0.001
   0.00000000  0.00000000  0.40000000       0.000
  -0.04000000  0.04000000  0.44000000       0.002
  -0.08000000  0.08000000  0.48000000       0.002
  -0.12000000  0.12000000  0.52000000       0.002
  -0.16000000  0.16000000  0.56000000       0.002
  -0.20000000  0.20000000  0.60000000       0.002
  -0.24000000  0.24000000  0.64000000       0.002
  -0.28000000  0.28000000  0.68000000       0.002
   0.68000000 -0.68000000 -0.28000000       0.002
   0.64000000 -0.64000000 -0.24000000       0.002
   0.60000000 -0.60000000 -0.20000000       0.002
   0.56000000 -0.56000000 -0.16000000       0.002
   0.52000000 -0.52000000 -0.12000000       0.002
   0.48000000 -0.48000000 -0.08000000       0.002
   0.44000000 -0.44000000 -0.04000000       0.002
   0.40000000 -0.40000000  0.00000000       0.001
   0.00000000  0.00000000  0.48000000       0.000
  -0.04000000  0.04000000  0.52000000       0.002
  -0.08000000  0.08000000  0.56000000       0.002
  -0.12000000  0.12000000  0.60000000       0.002
  -0.16000000  0.16000000  0.64000000       0.002
  -0.20000000  0.20000000  0.68000000       0.002
  -0.24000000  0.24000000  0.72000000       0.002
   0.72000000 -0.72000000 -0.24000000       0.002
   0.68000000 -0.68000000 -0.20000000       0.002
   0.64000000 -0.64000000 -0.16000000       0.002
   0.60000000 -0.60000000 -0.12000000       0.002
   0.56000000 -0.56000000 -0.08000000       0.002
   0.52000000 -0.52000000 -0.04000000       0.002
   0.48000000 -0.48000000  0.00000000       0.001
   0.00000000  0.00000000  0.56000000       0.000
  -0.04000000  0.04000000  0.60000000       0.002
  -0.08000000  0.08000000  0.64000000       0.002
  -0.12000000  0.12000000  0.68000000       0.002
  -0.16000000  0.16000000  0.72000000       0.002
  -0.20000000  0.20000000  0.76000000       0.002
   0.76000000 -0.76000000 -0.20000000       0.002
   0.72000000 -0.72000000 -0.16000000       0.002
   0.68000000 -0.68000000 -0.12000000       0.002
   0.64000000 -0.64000000 -0.08000000       0.002
   0.60000000 -0.60000000 -0.04000000       0.002
   0.56000000 -0.56000000  0.00000000       0.001
   0.00000000  0.00000000  0.64000000       0.000
  -0.04000000  0.04000000  0.68000000       0.002
  -0.08000000  0.08000000  0.72000000       0.002
  -0.12000000  0.12000000  0.76000000       0.002
  -0.16000000  0.16000000  0.80000000       0.002
   0.80000000 -0.80000000 -0.16000000       0.002
   0.76000000 -0.76000000 -0.12000000       0.002
   0.72000000 -0.72000000 -0.08000000       0.002
   0.68000000 -0.68000000 -0.04000000       0.002
   0.64000000 -0.64000000  0.00000000       0.001
   0.00000000  0.00000000  0.72000000       0.000
  -0.04000000  0.04000000  0.76000000       0.002
  -0.08000000  0.08000000  0.80000000       0.002
  -0.12000000  0.12000000  0.84000000       0.002
   0.84000000 -0.84000000 -0.12000000       0.002
   0.80000000 -0.80000000 -0.08000000       0.002
   0.76000000 -0.76000000 -0.04000000       0.002
   0.72000000 -0.72000000  0.00000000       0.001
   0.00000000  0.00000000  0.80000000       0.000
  -0.04000000  0.04000000  0.84000000       0.002
  -0.08000000  0.08000000  0.88000000       0.002
   0.88000000 -0.88000000 -0.08000000       0.002
   0.84000000 -0.84000000 -0.04000000       0.002
   0.80000000 -0.80000000  0.00000000       0.001
   0.00000000  0.00000000  0.88000000       0.000
  -0.04000000  0.04000000  0.92000000       0.002
   0.92000000 -0.92000000 -0.04000000       0.002
   0.88000000 -0.88000000 -0.00000000       0.001
   0.00000000  0.00000000  0.96000000       0.000
   0.96000000 -0.96000000  0.00000000       0.001
  -0.00000000  0.08000000  0.16000000       0.002
  -0.04000000  0.12000000  0.20000000       0.003
  -0.08000000  0.16000000  0.24000000       0.003
  -0.12000000  0.20000000  0.28000000       0.003
  -0.16000000  0.24000000  0.32000000       0.003
  -0.20000000  0.28000000  0.36000000       0.003
  -0.24000000  0.32000000  0.40000000       0.003
  -0.28000000  0.36000000  0.44000000       0.003
  -0.32000000  0.40000000  0.48000000       0.003
  -0.36000000  0.44000000  0.52000000       0.003
   0.60000000 -0.52000000 -0.44000000       0.003
   0.00000000  0.08000000  0.24000000       0.002
  -0.04000000  0.12000000  0.28000000       0.003
  -0.08000000  0.16000000  0.32000000       0.003
  -0.12000000  0.20000000  0.36000000       0.003
  -0.16000000  0.24000000  0.40000000       0.003
  -0.20000000  0.28000000  0.44000000       0.003
  -0.24000000  0.32000000  0.48000000       0.003
  -0.28000000  0.36000000  0.52000000       0.003
  -0.32000000  0.40000000  0.56000000       0.003
   0.64000000 -0.56000000 -0.40000000       0.003
   0.60000000 -0.52000000 -0.36000000       0.003
   0.56000000 -0.48000000 -0.32000000       0.003
   0.52000000 -0.44000000 -0.28000000       0.003
   0.48000000 -0.40000000 -0.24000000       0.003
   0.44000000 -0.36000000 -0.20000000       0.003
   0.40000000 -0.32000000 -0.16000000       0.003
   0.36000000 -0.28000000 -0.12000000       0.003
   0.32000000 -0.24000000 -0.08000000       0.003
   0.28000000 -0.20000000 -0.04000000       0.003
   0.24000000 -0.16000000  0.00000000       0.002
  -0.00000000  0.08000000  0.32000000       0.002
  -0.04000000  0.12000000  0.36000000       0.003
  -0.08000000  0.16000000  0.40000000       0.003
  -0.12000000  0.20000000  0.44000000       0.003
  -0.16000000  0.24000000  0.48000000       0.003
  -0.20000000  0.28000000  0.52000000       0.003
  -0.24000000  0.32000000  0.56000000       0.003
  -0.28000000  0.36000000  0.60000000       0.003
   0.68000000 -0.60000000 -0.36000000       0.003
   0.64000000 -0.56000000 -0.32000000       0.003
   0.60000000 -0.52000000 -0.28000000       0.003
   0.56000000 -0.48000000 -0.24000000       0.003
   0.52000000 -0.44000000 -0.20000000       0.003
   0.48000000 -0.40000000 -0.16000000       0.003
   0.44000000 -0.36000000 -0.12000000       0.003
   0.40000000 -0.32000000 -0.08000000       0.003
   0.36000000 -0.28000000 -0.04000000       0.003
   0.32000000 -0.24000000 -0.00000000       0.002
  -0.00000000  0.08000000  0.40000000       0.002
  -0.04000000  0.12000000  0.44000000       0.003
  -0.08000000  0.16000000  0.48000000       0.003
  -0.12000000  0.20000000  0.52000000       0.003
  -0.16000000  0.24000000  0.56000000       0.003
  -0.20000000  0.28000000  0.60000000       0.003
  -0.24000000  0.32000000  0.64000000       0.003
   0.72000000 -0.64000000 -0.32000000       0.003
   0.68000000 -0.60000000 -0.28000000       0.003
   0.64000000 -0.56000000 -0.24000000       0.003
   0.60000000 -0.52000000 -0.20000000       0.003
   0.56000000 -0.48000000 -0.16000000       0.003
   0.52000000 -0.44000000 -0.12000000       0.003
   0.48000000 -0.40000000 -0.08000000       0.003
   0.44000000 -0.36000000 -0.04000000       0.003
   0.40000000 -0.32000000  0.00000000       0.002
  -0.00000000  0.08000000  0.48000000       0.002
  -0.04000000  0.12000000  0.52000000       0.003
  -0.08000000  0.16000000  0.56000000       0.003
  -0.12000000  0.20000000  0.60000000       0.003
  -0.16000000  0.24000000  0.64000000       0.003
  -0.20000000  0.28000000  0.68000000       0.003
   0.76000000 -0.68000000 -0.28000000       0.003
   0.72000000 -0.64000000 -0.24000000       0.003
   0.68000000 -0.60000000 -0.20000000       0.003
   0.64000000 -0.56000000 -0.16000000       0.003
   0.60000000 -0.52000000 -0.12000000       0.003
   0.56000000 -0.48000000 -0.08000000       0.003
   0.52000000 -0.44000000 -0.04000000       0.003
[...]
     31      61.4050      0.00000
     32      63.4077      0.00000
     33      64.8025      0.00000
     34      66.6646      0.00000
     35      70.5545      0.00000
     36      74.0379      0.00000
     37      76.5596      0.00000
     38      80.3414      0.00000
     39      83.3651      0.00000
     40      84.1347      0.00000
     41      84.7570      0.00000
     42      86.8983      0.00000
     43      89.4107      0.00000
     44      91.0533      0.00000
     45      92.8429      0.00000
     46      94.7954      0.00000
     47      95.9883      0.00000
     48      97.3837      0.00000
     49      99.8291      0.00000
     50     100.4310      0.00000
     51     102.1978      0.00000
     52     104.0579      0.00000

 k-point   451 :      -0.2800    0.4400    0.2000
  band No.  band energies     occupation 
      1     -52.1027      2.00000
      2     -26.3780      2.00000
      3     -26.3537      2.00000
      4     -26.2080      2.00000
      5      -2.9512      2.00000
      6       6.0902      2.00000
      7       6.3705      2.00000
      8       6.8378      2.00000
      9      12.8399      1.16852
     10      13.0870      0.00000
     11      14.1650      0.00000
     12      15.2826      0.00000
     13      15.9481      0.00000
     14      24.9846      0.00000
     15      25.2887      0.00000
     16      26.4974      0.00000
     17      30.4132      0.00000
     18      35.5427      0.00000
     19      35.8129      0.00000
     20      42.8927      0.00000
     21      46.2004      0.00000
     22      46.3704      0.00000
     23      48.8774      0.00000
     24      49.8689      0.00000
     25      53.7692      0.00000
     26      55.3921      0.00000
     27      55.9927      0.00000
     28      56.9523      0.00000
     29      57.4514      0.00000
     30      57.7495      0.00000
     31      62.2274      0.00000
     32      62.9985      0.00000
     33      64.7799      0.00000
     34      65.7895      0.00000
     35      70.5775      0.00000
     36      74.6577      0.00000
     37      76.2616      0.00000
     38      79.9654      0.00000
     39      83.3885      0.00000
     40      84.1211      0.00000
     41      85.6847      0.00000
     42      86.5050      0.00000
     43      89.1226      0.00000
     44      91.0282      0.00000
     45      93.1087      0.00000
     46      94.9697      0.00000
     47      96.0259      0.00000
     48      97.6518      0.00000
     49      99.2797      0.00000
     50     100.2794      0.00000
     51     102.1200      0.00000
     52     103.5905      0.00000

 k-point   452 :      -0.2400    0.4400    0.2000
  band No.  band energies     occupation 
      1     -52.1038      2.00000
      2     -26.3894      2.00000
      3     -26.3440      2.00000
      4     -26.1988      2.00000
      5      -2.9393      2.00000
      6       5.9042      2.00000
      7       6.4554      2.00000
      8       6.8607      2.00000
      9      12.8356      1.21252
     10      13.0940      0.00000
     11      14.1768      0.00000
     12      15.2646      0.00000
     13      16.0985      0.00000
     14      24.8360      0.00000
     15      25.2510      0.00000
     16      26.5382      0.00000
     17      30.5113      0.00000
     18      35.2822      0.00000
     19      36.0570      0.00000
     20      42.9956      0.00000
     21      45.8805      0.00000
     22      46.4479      0.00000
     23      48.7877      0.00000
     24      49.1660      0.00000
     25      54.2588      0.00000
     26      55.2451      0.00000
     27      56.6257      0.00000
     28      57.1046      0.00000
     29      57.4125      0.00000
     30      57.6964      0.00000
     31      62.1763      0.00000
     32      63.2248      0.00000
     33      65.0805      0.00000
     34      65.5749      0.00000
     35      70.6854      0.00000
     36      74.9200      0.00000
     37      76.2338      0.00000
     38      79.8784      0.00000
     39      83.0298      0.00000
     40      83.9976      0.00000
     41      84.7779      0.00000
     42      87.6878      0.00000
     43      87.9702      0.00000
     44      92.4031      0.00000
     45      93.2871      0.00000
     46      94.2485      0.00000
     47      95.8553      0.00000
     48      97.0394      0.00000
     49      99.5313      0.00000
     50      99.9131      0.00000
     51     102.1457      0.00000
     52     103.0911      0.00000

 k-point   453 :      -0.3200    0.4800    0.2000
  band No.  band energies     occupation 
      1     -52.1019      2.00000
      2     -26.4100      2.00000
      3     -26.3143      2.00000
      4     -26.2194      2.00000
      5      -3.0220      2.00000
      6       6.1488      2.00000
      7       6.6735      2.00000
      8       6.8415      2.00000
      9      12.2745      2.00124
     10      13.5065      0.00000
     11      14.1523      0.00000
     12      15.0640      0.00000
     13      15.8716      0.00000
     14      25.0982      0.00000
     15      25.5674      0.00000
     16      26.0372      0.00000
     17      30.7035      0.00000
     18      34.9795      0.00000
     19      36.5019      0.00000
     20      42.8514      0.00000
     21      46.3218      0.00000
     22      46.7343      0.00000
     23      49.2488      0.00000
     24      49.7394      0.00000
     25      53.5713      0.00000
     26      54.2503      0.00000
     27      56.4675      0.00000
     28      56.4734      0.00000
     29      57.1359      0.00000
     30      58.2540      0.00000
     31      60.8907      0.00000
     32      62.4335      0.00000
     33      65.7100      0.00000
     34      67.7522      0.00000
     35      70.5666      0.00000
     36      72.9106      0.00000
     37      76.7954      0.00000
     38      81.0933      0.00000
     39      82.9918      0.00000
     40      83.5714      0.00000
     41      85.8134      0.00000
     42      87.2522      0.00000
     43      89.7068      0.00000
     44      90.4180      0.00000
     45      91.3841      0.00000
     46      95.5510      0.00000
     47      96.1949      0.00000
     48      97.8482      0.00000
     49     100.2881      0.00000
     50     100.9478      0.00000
     51     102.5645      0.00000
     52     103.3084      0.00000

 k-point   454 :      -0.2800    0.4800    0.2000
  band No.  band energies     occupation 
      1     -52.1017      2.00000
      2     -26.3894      2.00000
      3     -26.3372      2.00000
      4     -26.2189      2.00000
      5      -2.9860      2.00000
      6       6.2643      2.00000
      7       6.4253      2.00000
      8       6.7918      2.00000
      9      12.5704      2.27429
     10      13.3156      0.00000
     11      14.1529      0.00000
     12      15.1676      0.00000
     13      15.8547      0.00000
     14      25.1664      0.00000
     15      25.3735      0.00000
     16      26.3045      0.00000
     17      30.4502      0.00000
     18      35.3019      0.00000
     19      36.1155      0.00000
     20      42.8136      0.00000
     21      46.3682      0.00000
     22      46.5504      0.00000
     23      49.4454      0.00000
     24      49.7973      0.00000
     25      53.5133      0.00000
     26      54.9629      0.00000
     27      55.9540      0.00000
     28      56.6312      0.00000
     29      57.1171      0.00000
     30      58.1091      0.00000
     31      61.4837      0.00000
     32      63.0302      0.00000
     33      64.7724      0.00000
     34      66.7135      0.00000
     35      70.4991      0.00000
     36      73.7477      0.00000
     37      76.5438      0.00000
     38      80.5144      0.00000
     39      83.3696      0.00000
     40      84.0188      0.00000
     41      86.2039      0.00000
     42      87.3593      0.00000
     43      88.7950      0.00000
     44      90.0892      0.00000
     45      92.3314      0.00000
     46      95.8331      0.00000
     47      96.3496      0.00000
     48      97.8187      0.00000
     49      98.8405      0.00000
     50     101.2253      0.00000
     51     103.1384      0.00000
     52     103.1640      0.00000

 k-point   455 :      -0.2800    0.4800    0.2400
  band No.  band energies     occupation 
      1     -52.1018      2.00000
      2     -26.3739      2.00000
      3     -26.3516      2.00000
      4     -26.2200      2.00000
      5      -2.9693      2.00000
      6       6.2606      2.00000
      7       6.4385      2.00000
      8       6.6943      2.00000
      9      12.8472      1.10435
     10      13.0952      0.00000
     11      14.1527      0.00000
     12      15.1881      0.00000
     13      15.8703      0.00000
     14      25.1806      0.00000
     15      25.3060      0.00000
     16      26.4558      0.00000
     17      30.2865      0.00000
     18      35.5343      0.00000
     19      35.8781      0.00000
     20      42.7989      0.00000
     21      46.3550      0.00000
     22      46.5051      0.00000
     23      49.5696      0.00000
     24      49.5981      0.00000
     25      53.8189      0.00000
     26      55.2399      0.00000
     27      55.8036      0.00000
     28      56.5900      0.00000
     29      57.0849      0.00000
     30      57.9608      0.00000
     31      62.1324      0.00000
     32      62.8922      0.00000
     33      64.9473      0.00000
     34      65.7461      0.00000
     35      70.3709      0.00000
     36      74.4572      0.00000
     37      76.0882      0.00000
     38      80.4599      0.00000
     39      83.8962      0.00000
     40      84.0681      0.00000
     41      85.9233      0.00000
     42      87.6062      0.00000
     43      88.2091      0.00000
     44      89.9743      0.00000
     45      93.4308      0.00000
     46      95.6174      0.00000
     47      96.0227      0.00000
     48      97.6160      0.00000
     49      98.3025      0.00000
     50     101.4063      0.00000
     51     103.1432      0.00000
     52     103.4516      0.00000


--------------------------------------------------------------------------------------------------------


 soft charge-density along one line, spin component           1
         0         1         2         3         4         5         6         7         8         9
 total charge-density along one line
 
 pseudopotential strength for first ion, spin component:           1
-18.220  10.256  -0.000  -0.000   0.000   0.000   0.000  -0.000
 10.256   3.241   0.000   0.000  -0.000  -0.000  -0.000   0.000
 -0.000   0.000 -26.704   0.000   0.000   6.962  -0.000  -0.000
 -0.000   0.000   0.000 -26.704   0.000  -0.000   6.962  -0.000
  0.000  -0.000   0.000   0.000 -26.704  -0.000  -0.000   6.962
  0.000  -0.000   6.962  -0.000  -0.000   6.031   0.000   0.000
  0.000  -0.000  -0.000   6.962  -0.000   0.000   6.031   0.000
 -0.000   0.000  -0.000  -0.000   6.962   0.000   0.000   6.031
  0.000  -0.000   0.000   0.000  -0.000  -0.000  -0.000   0.000
  0.000  -0.000  -0.000  -0.000   0.000   0.000   0.000  -0.000
 -0.000   0.000   0.000  -0.000  -0.000  -0.000   0.000   0.000
  0.000  -0.000   0.000   0.000  -0.000  -0.000  -0.000   0.000
  0.000  -0.000   0.000  -0.000   0.000  -0.000   0.000  -0.000
  0.000  -0.000   0.000   0.000  -0.000  -0.000  -0.000   0.000
  0.000  -0.000  -0.000  -0.000   0.000   0.000   0.000  -0.000
 -0.000   0.000   0.000  -0.000  -0.000  -0.000   0.000   0.000
  0.000  -0.000   0.000   0.000  -0.000  -0.000  -0.000   0.000
  0.000  -0.000   0.000  -0.000   0.000  -0.000   0.000  -0.000
 total augmentation occupancy for first ion, spin component:           1
  1.995  -0.051   0.000   0.000   0.000   0.000   0.000   0.000   0.000   0.000  -0.000   0.000   0.000  -0.000  -0.000   0.000
 -0.051   1.261   0.000   0.000   0.000   0.000   0.000   0.000   0.000  -0.000  -0.000  -0.000   0.000  -0.000   0.000   0.000
  0.000   0.000   1.989   0.000   0.000  -0.049   0.000   0.000   0.000   0.000   0.000   0.000   0.000   0.000   0.000   0.000
  0.000   0.000   0.000   1.989   0.000   0.000  -0.049  -0.000   0.000   0.000   0.000   0.000   0.000   0.000   0.000   0.000
  0.000   0.000   0.000   0.000   1.989  -0.000   0.000  -0.049   0.000   0.000   0.000   0.000   0.000   0.000   0.000   0.000
  0.000   0.000  -0.049   0.000   0.000   0.157   0.000   0.000   0.000   0.000   0.000   0.000   0.000   0.000   0.000   0.000
  0.000   0.000   0.000  -0.049   0.000   0.000   0.157   0.000   0.000   0.000   0.000   0.000   0.000   0.000   0.000   0.000
  0.000   0.000   0.000   0.000  -0.049   0.000   0.000   0.157   0.000   0.000   0.000   0.000   0.000   0.000   0.000   0.000
  0.000   0.000   0.000   0.000   0.000   0.000   0.000   0.000   5.188   0.000   0.000  -0.000   0.000  -3.266  -0.000  -0.000
  0.000  -0.000   0.000   0.000   0.000   0.000   0.000   0.000   0.000   5.188  -0.000   0.000   0.000   0.000  -3.266  -0.000
  0.000  -0.000   0.000   0.000   0.000   0.000   0.000   0.000  -0.000  -0.000  12.895  -0.000  -0.000  -0.000   0.000  -9.271
  0.000  -0.000   0.000   0.000   0.000   0.000   0.000   0.000  -0.000   0.000   0.000   5.188  -0.000   0.000   0.000   0.000
  0.000   0.000   0.000   0.000   0.000   0.000   0.000   0.000   0.000   0.000  -0.000  -0.000  12.895   0.000   0.000   0.000
 -0.000  -0.000   0.000   0.000   0.000   0.000   0.000   0.000  -3.266   0.000   0.000   0.000  -0.000   2.333   0.000   0.000
 -0.000   0.000   0.000   0.000   0.000   0.000   0.000   0.000   0.000  -3.266   0.000   0.000   0.000   0.000   2.333   0.000
  0.000   0.000   0.000   0.000   0.000   0.000   0.000   0.000  -0.000   0.000  -9.271   0.000   0.000   0.000  -0.000   6.762
  0.000   0.000   0.000   0.000   0.000   0.000   0.000   0.000   0.000   0.000   0.000  -3.266  -0.000  -0.000   0.000  -0.000
  0.000   0.000   0.000   0.000   0.000   0.000   0.000   0.000   0.000   0.000  -0.000  -0.000  -9.271  -0.000   0.000   0.000


------------------------ aborting loop because EDIFF is reached ----------------------------------------


 


 total charge     
 
# of ion     s       p       d       tot
----------------------------------------
  1        2.251   6.307   3.214  11.772
  2        1.631   3.468   0.000   5.099
------------------------------------------------
tot        3.882   9.775   3.214  16.870
 
    CHARGE:  cpu time    0.0850: real time    0.0851
    FORLOC:  cpu time    0.0020: real time    0.0013
    FORNL :  cpu time    0.2210: real time    0.2233
    STRESS:  cpu time    0.7159: real time    0.7185
    FORCOR:  cpu time    0.0140: real time    0.0154
    FORHAR:  cpu time    0.0020: real time    0.0022
    MIXING:  cpu time    0.0000: real time    0.0007
    OFIELD:  cpu time    0.0010: real time    0.0010

  FORCE on cell =-STRESS in cart. coord.  units (eV):
  Direction    XX          YY          ZZ          XY          YZ          ZX
  --------------------------------------------------------------------------------------
  Alpha Z   115.97935   115.97935   115.97935
  Ewald    -607.95594  -607.95594  -607.95594    -0.00000     0.00000     0.00000
  Hartree   131.18298   131.18298   131.18298     0.00000     0.00000     0.00000
  E(xc)     -92.89275   -92.89275   -92.89275     0.00000     0.00000     0.00000
  Local     111.01802   111.01802   111.01802    -0.00000    -0.00000    -0.00000
  n-local   -19.55822   -19.99209   -17.56046     2.05383    -2.80956     1.98230
  augment    89.74100    89.74100    89.74100     0.00000     0.00000     0.00000
  Kinetic   276.69224   278.86733   260.33645     3.31760    -7.14205     5.26927
  Fock        0.00000     0.00000     0.00000     0.00000     0.00000     0.00000
  -------------------------------------------------------------------------------------
  Total       0.00107     0.00107     0.00107    -0.00000    -0.00000     0.00000
  in kB       0.10194     0.10194     0.10194    -0.00000    -0.00000     0.00000
  external pressure =        0.10 kB  Pullay stress =        0.00 kB


 VOLUME and BASIS-vectors are now :
 -----------------------------------------------------------------------------
  energy-cutoff  :      600.00
  volume of cell :       16.86
      direct lattice vectors                 reciprocal lattice vectors
     0.000000000  2.035240000  2.035240000    -0.245671272  0.245671272  0.245671272
     2.035240000  0.000000000  2.035240000     0.245671272 -0.245671272  0.245671272
     2.035240000  2.035240000  0.000000000     0.245671272  0.245671272 -0.245671272

  length of vectors
     2.878264011  2.878264011  2.878264011     0.425515125  0.425515125  0.425515125


 FORCES acting on ions
    electron-ion (+dipol)            ewald-force                    non-local-force                 convergence-correction
 -----------------------------------------------------------------------------------------------
   -.191E-13 -.140E-13 -.924E-15   0.381E-15 -.748E-14 -.274E-14   0.000E+00 -.414E-24 0.000E+00   0.204E-16 -.160E-13 -.354E-15
   0.841E-12 -.115E-11 -.616E-12   0.696E-16 0.556E-14 0.182E-14   -.213E-24 0.103E-23 -.207E-24   -.400E-14 -.368E-14 -.721E-14
 -----------------------------------------------------------------------------------------------
   0.822E-12 -.116E-11 -.617E-12   0.451E-15 -.192E-14 -.918E-15   -.213E-24 0.614E-24 -.207E-24   -.398E-14 -.197E-13 -.756E-14
 
 
 POSITION                                       TOTAL-FORCE (eV/Angst)
 -----------------------------------------------------------------------------------
      0.00000      0.00000      0.00000         0.000000     -0.000000      0.000000
      2.03524      2.03524      2.03524        -0.000000      0.000000     -0.000000
 -----------------------------------------------------------------------------------
    total drift:                                0.000000     -0.000000     -0.000000


--------------------------------------------------------------------------------------------------------



  FREE ENERGIE OF THE ION-ELECTRON SYSTEM (eV)
  ---------------------------------------------------
  free  energy   TOTEN  =       -20.08413944 eV

  energy  without entropy=      -20.08413944  energy(sigma->0) =      -20.08413944
 


--------------------------------------------------------------------------------------------------------


    POTLOK:  cpu time    0.0190: real time    0.0195


--------------------------------------------------------------------------------------------------------


     LOOP+:  cpu time   85.7390: real time   86.0123
    4ORBIT:  cpu time    0.0000: real time    0.0000
 


 total charge     
 
# of ion     s       p       d       tot
----------------------------------------
  1        2.251   6.307   3.214  11.772
  2        1.631   3.468   0.000   5.099
------------------------------------------------
tot        3.882   9.775   3.214  16.870
 
 BZINTS: Fermi energy: 12.825435; 18.000000 electrons
         Band energy:-204.563314;  BLOECHL correction: -0.011170

 total amount of memory used by VASP on root node    66195. kBytes
========================================================================

   base      :      30000. kBytes
   nonl-proj :      19398. kBytes
   fftplans  :        344. kBytes
   grid      :        539. kBytes
   one-center:         15. kBytes
   wavefun   :      15899. kBytes
 
  
  
 General timing and accounting informations for this job:
 ========================================================
  
                  Total CPU time used (sec):       92.550
                            User time (sec):       90.013
                          System time (sec):        2.537
                         Elapsed time (sec):       93.077
  
                   Maximum memory used (kb):       71968.
                   Average memory used (kb):           0.
  
                          Minor page faults:        18488
                          Major page faults:            0
                 Voluntary context switches:        27653
