unknown system                          
           1
     0.000000    2.035240    2.035240
     2.035240    0.000000    2.035240
     2.035240    2.035240    0.000000
   V    N 
   1   1
Direct configuration=     1
   0.00000000  0.00000000  0.00000000
   0.50000000  0.50000000  0.50000000
