    2    2    1    1
  0.8434557E+01  0.2878740E-09  0.2878740E-09  0.2878740E-09  0.2000000E-15
  1.000000000000000E-004
  CAR 
 unknown system                          
     18    160     50
 
  0.0000000E+00  0.0000000E+00  0.0000000E+00  0.6250000E-02
    1      -52.228904   1.000000
    2      -26.027426   1.000000
    3      -26.027426   1.000000
    4      -26.027426   1.000000
    5       -5.352940   1.000000
    6       10.537459   1.000000
    7       10.537459   1.000000
    8       10.537460   1.000000
    9       11.181472   1.000000
   10       11.181472   1.000000
   11       11.181472   1.000000
   12       12.301880   0.000000
   13       12.301880   0.000000
   14       19.231606   0.000000
   15       26.722385   0.000000
   16       33.113260   0.000000
   17       33.113260   0.000000
   18       33.113260   0.000000
   19       41.022957   0.000000
   20       41.022957   0.000000
   21       41.690614   0.000000
   22       41.690617   0.000000
   23       41.690617   0.000000
   24       50.211416   0.000000
   25       50.211416   0.000000
   26       50.211416   0.000000
   27       57.184505   0.000000
   28       62.491989   0.000000
   29       62.491988   0.000000
   30       62.491989   0.000000
   31       67.779419   0.000000
   32       67.779418   0.000000
   33       72.021059   0.000000
   34       72.021063   0.000000
   35       72.021065   0.000000
   36       82.386442   0.000000
   37       85.768020   0.000000
   38       85.874993   0.000000
   39       86.147696   0.000000
   40       87.740336   0.000000
   41       89.837715   0.000000
   42       90.142634   0.000000
   43       91.395617   0.000000
   44       91.957896   0.000000
   45       92.074996   0.000000
   46       92.632221   0.000000
   47       92.932682   0.000000
   48       94.196563   0.000000
   49       96.759103   0.000000
   50       97.165360   0.000000
 
  0.0000000E+00  0.1282051E-01  0.1282051E-01  0.6250000E-02
    1      -52.228711   1.000000
    2      -26.028338   1.000000
    3      -26.027735   1.000000
    4      -26.027735   1.000000
    5       -5.348099   1.000000
    6       10.469618   1.000000
    7       10.502749   1.000000
    8       10.502749   1.000000
    9       11.176466   1.000000
   10       11.220716   1.000000
   11       11.220716   1.000000
   12       12.303451   0.000000
   13       12.365536   0.000000
   14       19.243592   0.000000
   15       26.723386   0.000000
   16       33.098639   0.000000
   17       33.098639   0.000000
   18       33.128962   0.000000
   19       40.659768   0.000000
   20       41.022369   0.000000
   21       41.713927   0.000000
   22       41.713928   0.000000
   23       42.041219   0.000000
   24       50.195376   0.000000
   25       50.205641   0.000000
   26       50.205641   0.000000
   27       57.210194   0.000000
   28       62.391019   0.000000
   29       62.484628   0.000000
   30       62.484629   0.000000
   31       67.795495   0.000000
   32       67.892319   0.000000
   33       72.016577   0.000000
   34       72.023988   0.000000
   35       72.023951   0.000000
   36       82.376213   0.000000
   37       85.745510   0.000000
   38       85.824260   0.000000
   39       85.836370   0.000000
   40       87.799933   0.000000
   41       89.580945   0.000000
   42       89.863123   0.000000
   43       90.487466   0.000000
   44       91.997229   0.000000
   45       91.985804   0.000000
   46       92.333031   0.000000
   47       92.828268   0.000000
   48       94.182635   0.000000
   49       95.969266   0.000000
   50       97.525926   0.000000
 
  0.0000000E+00  0.2564103E-01  0.2564103E-01  0.6250000E-02
    1      -52.228134   1.000000
    2      -26.031073   1.000000
    3      -26.028658   1.000000
    4      -26.028658   1.000000
    5       -5.333590   1.000000
    6       10.290186   1.000000
    7       10.416774   1.000000
    8       10.416774   1.000000
    9       11.161511   1.000000
   10       11.320243   1.000000
   11       11.320243   1.000000
   12       12.308159   0.000000
   13       12.532349   0.000000
   14       19.279557   0.000000
   15       26.726367   0.000000
   16       33.055446   0.000000
   17       33.055446   0.000000
   18       33.176026   0.000000
   19       40.079491   0.000000
   20       41.020610   0.000000
   21       41.783231   0.000000
   22       41.783232   0.000000
   23       42.583591   0.000000
   24       50.148129   0.000000
   25       50.188291   0.000000
   26       50.188292   0.000000
   27       57.286845   0.000000
   28       62.110750   0.000000
   29       62.462675   0.000000
   30       62.462676   0.000000
   31       67.843454   0.000000
   32       68.208355   0.000000
   33       72.002924   0.000000
   34       72.032076   0.000000
   35       72.032085   0.000000
   36       82.395041   0.000000
   37       85.489140   0.000000
   38       85.570008   0.000000
   39       86.168601   0.000000
   40       87.482716   0.000000
   41       89.294862   0.000000
   42       89.522253   0.000000
   43       90.299642   0.000000
   44       91.651743   0.000000
   45       91.739472   0.000000
   46       92.046898   0.000000
   47       92.849375   0.000000
   48       93.642536   0.000000
   49       94.293430   0.000000
   50       97.254006   0.000000
 
  0.0000000E+00  0.3846154E-01  0.3846154E-01  0.6250000E-02
    1      -52.227190   1.000000
    2      -26.035673   1.000000
    3      -26.030210   1.000000
    4      -26.030210   1.000000
    5       -5.309549   1.000000
    6       10.042354   1.000000
    7       10.306780   1.000000
    8       10.306780   1.000000
    9       11.136771   1.000000
   10       11.452567   1.000000
   11       11.452567   1.000000
   12       12.315975   0.000000
   13       12.758813   0.000000
   14       19.339456   0.000000
   15       26.731183   0.000000
   16       32.985546   0.000000
   17       32.985546   0.000000
   18       33.254308   0.000000
   19       39.465338   0.000000
   20       41.017594   0.000000
   21       41.896707   0.000000
   22       41.896708   0.000000
   23       43.133354   0.000000
   24       50.072213   0.000000
   25       50.159305   0.000000
   26       50.159305   0.000000
   27       57.413365   0.000000
   28       61.700323   0.000000
   29       62.426404   0.000000
   30       62.426404   0.000000
   31       67.921532   0.000000
   32       68.677977   0.000000
   33       71.979678   0.000000
   34       72.039906   0.000000
   35       72.039903   0.000000
   36       82.312326   0.000000
   37       85.144847   0.000000
   38       85.240683   0.000000
   39       86.123135   0.000000
   40       87.392559   0.000000
   41       88.628167   0.000000
   42       89.029363   0.000000
   43       90.174759   0.000000
   44       91.168997   0.000000
   45       91.498027   0.000000
   46       91.866585   0.000000
   47       92.652718   0.000000
   48       93.677916   0.000000
   49       94.284703   0.000000
   50       96.332627   0.000000
 
  0.0000000E+00  0.5128205E-01  0.5128205E-01  0.6250000E-02
    1      -52.225863   1.000000
    2      -26.041976   1.000000
    3      -26.032338   1.000000
    4      -26.032338   1.000000
    5       -5.276189   1.000000
    6        9.758079   1.000000
    7       10.188298   1.000000
    8       10.188298   1.000000
    9       11.102583   1.000000
   10       11.602009   1.000000
   11       11.602009   1.000000
   12       12.326863   0.000000
   13       13.013231   0.000000
   14       19.423154   0.000000
   15       26.737896   0.000000
   16       32.891998   0.000000
   17       32.891998   0.000000
   18       33.363606   0.000000
   19       38.838802   0.000000
   20       41.013547   0.000000
   21       42.051596   0.000000
   22       42.051598   0.000000
   23       43.669010   0.000000
   24       49.971707   0.000000
   25       50.118585   0.000000
   26       50.118585   0.000000
   27       57.588157   0.000000
   28       61.207047   0.000000
   29       62.376514   0.000000
   30       62.376513   0.000000
   31       68.030488   0.000000
   32       69.254413   0.000000
   33       71.947680   0.000000
   34       72.050782   0.000000
   35       72.050775   0.000000
   36       82.357392   0.000000
   37       84.680656   0.000000
   38       84.766949   0.000000
   39       85.964729   0.000000
   40       87.251227   0.000000
   41       87.991211   0.000000
   42       88.023246   0.000000
   43       90.430093   0.000000
   44       90.730474   0.000000
   45       91.041242   0.000000
   46       91.733578   0.000000
   47       92.371614   0.000000
   48       93.858684   0.000000
   49       94.369046   0.000000
   50       97.861810   0.000000
 
  0.0000000E+00  0.6410256E-01  0.6410256E-01  0.6250000E-02
    1      -52.224180   1.000000
    2      -26.049993   1.000000
    3      -26.035085   1.000000
    4      -26.035084   1.000000
    5       -5.233842   1.000000
    6        9.455378   1.000000
    7       10.068551   1.000000
    8       10.068551   1.000000
    9       11.059309   1.000000
   10       11.760765   0.944232
   11       11.760765   0.944232
   12       12.340752   0.000000
   13       13.277301   0.000000
   14       19.530339   0.000000
   15       26.746214   0.000000
   16       32.778368   0.000000
   17       32.778368   0.000000
   18       33.503596   0.000000
   19       38.205864   0.000000
   20       41.007734   0.000000
   21       42.244457   0.000000
   22       42.244458   0.000000
   23       44.182400   0.000000
   24       49.851857   0.000000
   25       50.065929   0.000000
   26       50.065929   0.000000
   27       57.809264   0.000000
   28       60.664080   0.000000
   29       62.313499   0.000000
   30       62.313499   0.000000
   31       68.167552   0.000000
   32       69.902359   0.000000
   33       71.905171   0.000000
   34       72.053985   0.000000
   35       72.053975   0.000000
   36       82.211003   0.000000
   37       84.153011   0.000000
   38       84.442736   0.000000
   39       86.451942   0.000000
   40       86.626043   0.000000
   41       87.454598   0.000000
   42       88.415326   0.000000
   43       90.375065   0.000000
   44       90.664442   0.000000
   45       91.366534   0.000000
   46       91.587978   0.000000
   47       93.736337   0.000000
   48       93.974560   0.000000
   49       96.714866   0.000000
   50       98.666178   0.000000
 
  0.0000000E+00  0.7692308E-01  0.7692308E-01  0.6250000E-02
    1      -52.222131   1.000000
    2      -26.059610   1.000000
    3      -26.038363   1.000000
    4      -26.038363   1.000000
    5       -5.182876   1.000000
    6        9.144661   1.000000
    7        9.951146   1.000000
    8        9.951146   1.000000
    9       11.007496   1.000000
   10       11.925016   0.001128
   11       11.925016   0.001128
   12       12.357595   0.000000
   13       13.540711   0.000000
   14       19.660501   0.000000
   15       26.756145   0.000000
   16       32.648911   0.000000
   17       32.648911   0.000000
   18       33.673915   0.000000
   19       37.569983   0.000000
   20       41.001553   0.000000
   21       42.471537   0.000000
   22       42.471539   0.000000
   23       44.668067   0.000000
   24       49.718981   0.000000
   25       50.001273   0.000000
   26       50.001273   0.000000
   27       58.074578   0.000000
   28       60.094245   0.000000
   29       62.238474   0.000000
   30       62.238474   0.000000
   31       68.330784   0.000000
   32       70.602069   0.000000
   33       71.853991   0.000000
   34       72.048967   0.000000
   35       72.048961   0.000000
   36       82.124625   0.000000
   37       83.536922   0.000000
   38       83.582443   0.000000
   39       86.178084   0.000000
   40       86.353900   0.000000
   41       87.076696   0.000000
   42       87.303138   0.000000
   43       90.017017   0.000000
   44       90.278315   0.000000
   45       90.569095   0.000000
   46       91.472870   0.000000
   47       91.716015   0.000000
   48       93.953046   0.000000
   49       96.107316   0.000000
   50      100.135311   0.000000
 
  0.0000000E+00  0.8974359E-01  0.8974359E-01  0.6250000E-02
    1      -52.219743   1.000000
    2      -26.070770   1.000000
    3      -26.042188   1.000000
    4      -26.042188   1.000000
    5       -5.123777   1.000000
    6        8.832239   1.000000
    7        9.837966   1.000000
    8        9.837966   1.000000
    9       10.947702   1.000000
   10       12.092146   0.000000
   11       12.092146   0.000000
   12       12.377292   0.000000
   13       13.797362   0.000000
   14       19.812800   0.000000
   15       26.767438   0.000000
   16       32.507810   0.000000
   17       32.507810   0.000000
   18       33.874092   0.000000
   19       36.933564   0.000000
   20       40.994395   0.000000
   21       42.728985   0.000000
   22       42.728986   0.000000
   23       45.120734   0.000000
   24       49.580454   0.000000
   25       49.924392   0.000000
   26       49.924393   0.000000
   27       58.381979   0.000000
   28       59.510866   0.000000
   29       62.152149   0.000000
   30       62.152150   0.000000
   31       68.517884   0.000000
   32       71.338224   0.000000
   33       71.792503   0.000000
   34       72.025944   0.000000
   35       72.026000   0.000000
   36       82.050269   0.000000
   37       82.931017   0.000000
   38       82.937396   0.000000
   39       85.742403   0.000000
   40       86.366781   0.000000
   41       86.650170   0.000000
   42       86.722152   0.000000
   43       89.768071   0.000000
   44       90.123972   0.000000
   45       90.963991   0.000000
   46       91.348782   0.000000
   47       91.667369   0.000000
   48       93.823855   0.000000
   49       95.625956   0.000000
   50      100.731397   0.000000
 
  0.0000000E+00  0.1025641E+00  0.1025641E+00  0.6250000E-02
    1      -52.217030   1.000000
    2      -26.083379   1.000000
    3      -26.046537   1.000000
    4      -26.046537   1.000000
    5       -5.057120   1.000000
    6        8.522373   1.000000
    7        9.730144   1.000000
    8        9.730144   1.000000
    9       10.880579   1.000000
   10       12.260337   0.000000
   11       12.260337   0.000000
   12       12.399739   0.000000
   13       14.043523   0.000000
   14       19.986002   0.000000
   15       26.779918   0.000000
   16       32.359256   0.000000
   17       32.359256   0.000000
   18       34.103596   0.000000
   19       36.298620   0.000000
   20       40.986328   0.000000
   21       43.013064   0.000000
   22       43.013065   0.000000
   23       45.534514   0.000000
   24       49.444868   0.000000
   25       49.835092   0.000000
   26       49.835092   0.000000
   27       58.729331   0.000000
   28       58.922787   0.000000
   29       62.055333   0.000000
   30       62.055333   0.000000
   31       68.726415   0.000000
   32       71.720002   0.000000
   33       71.977138   0.000000
   34       71.977142   0.000000
   35       72.101746   0.000000
   36       81.902140   0.000000
   37       82.316527   0.000000
   38       82.318863   0.000000
   39       84.919031   0.000000
   40       86.307268   0.000000
   41       86.336369   0.000000
   42       86.440257   0.000000
   43       89.422885   0.000000
   44       89.519024   0.000000
   45       90.347167   0.000000
   46       90.831172   0.000000
   47       90.800888   0.000000
   48       91.402641   0.000000
   49       96.893576   0.000000
   50       99.688819   0.000000
 
  0.0000000E+00  0.1153846E+00  0.1153846E+00  0.6250000E-02
    1      -52.214007   1.000000
    2      -26.097315   1.000000
    3      -26.051380   1.000000
    4      -26.051380   1.000000
    5       -4.983582   1.000000
    6        8.218203   1.000000
    7        9.628391   1.000000
    8        9.628391   1.000000
    9       10.806831   1.000000
   10       12.424812   0.000000
   11       12.428088   0.000000
   12       12.428088   0.000000
   13       14.276926   0.000000
   14       20.178414   0.000000
   15       26.793409   0.000000
   16       32.207243   0.000000
   17       32.207243   0.000000
   18       34.361830   0.000000
   19       35.666923   0.000000
   20       40.977427   0.000000
   21       43.320283   0.000000
   22       43.320284   0.000000
   23       45.902321   0.000000
   24       49.322376   0.000000
   25       49.733184   0.000000
   26       49.733184   0.000000
   27       58.335871   0.000000
   28       59.114458   0.000000
   29       61.948750   0.000000
   30       61.948751   0.000000
   31       68.953877   0.000000
   32       71.635257   0.000000
   33       71.894509   0.000000
   34       71.894503   0.000000
   35       72.886250   0.000000
   36       81.726717   0.000000
   37       81.728888   0.000000
   38       81.758868   0.000000
   39       84.139124   0.000000
   40       85.971080   0.000000
   41       85.985622   0.000000
   42       86.442980   0.000000
   43       89.128524   0.000000
   44       89.197282   0.000000
   45       89.648339   0.000000
   46       90.562370   0.000000
   47       91.071215   0.000000
   48       91.203546   0.000000
   49       95.989011   0.000000
   50       98.376495   0.000000
 
  0.0000000E+00  0.1282051E+00  0.1282051E+00  0.6250000E-02
    1      -52.210701   1.000000
    2      -26.112431   1.000000
    3      -26.056730   1.000000
    4      -26.056730   1.000000
    5       -4.903903   1.000000
    6        7.922251   1.000000
    7        9.533164   1.000000
    8        9.533164   1.000000
    9       10.727109   1.000000
   10       12.452375   0.000000
   11       12.593978   0.000000
   12       12.593978   0.000000
   13       14.496289   0.000000
   14       20.387945   0.000000
   15       26.807663   0.000000
   16       32.055470   0.000000
   17       32.055471   0.000000
   18       34.648117   0.000000
   19       35.040215   0.000000
   20       40.967600   0.000000
   21       43.647468   0.000000
   22       43.647470   0.000000
   23       46.215482   0.000000
   24       49.224885   0.000000
   25       49.618521   0.000000
   26       49.618521   0.000000
   27       57.753982   0.000000
   28       59.534991   0.000000
   29       61.833106   0.000000
   30       61.833105   0.000000
   31       69.197447   0.000000
   32       71.531409   0.000000
   33       71.771163   0.000000
   34       71.771201   0.000000
   35       73.687536   0.000000
   36       81.180645   0.000000
   37       81.196821   0.000000
   38       81.597791   0.000000
   39       83.298537   0.000000
   40       85.662698   0.000000
   41       85.673763   0.000000
   42       86.722918   0.000000
   43       88.537363   0.000000
   44       88.933264   0.000000
   45       89.060574   0.000000
   46       90.171491   0.000000
   47       91.443145   0.000000
   48       91.545432   0.000000
   49      100.312852   0.000000
   50      101.218450   0.000000
 
  0.0000000E+00  0.1410256E+00  0.1410256E+00  0.6250000E-02
    1      -52.207123   1.000000
    2      -26.128667   1.000000
    3      -26.062463   1.000000
    4      -26.062463   1.000000
    5       -4.818925   1.000000
    6        7.636468   1.000000
    7        9.444803   1.000000
    8        9.444803   1.000000
    9       10.642373   1.000000
   10       12.482281   0.000000
   11       12.756922   0.000000
   12       12.756923   0.000000
   13       14.701037   0.000000
   14       20.611989   0.000000
   15       26.822687   0.000000
   16       31.907417   0.000000
   17       31.907417   0.000000
   18       34.419993   0.000000
   19       34.961808   0.000000
   20       40.957284   0.000000
   21       43.991707   0.000000
   22       43.991708   0.000000
   23       46.464945   0.000000
   24       49.165432   0.000000
   25       49.490935   0.000000
   26       49.490935   0.000000
   27       57.180336   0.000000
   28       59.988307   0.000000
   29       61.708764   0.000000
   30       61.708765   0.000000
   31       69.454945   0.000000
   32       71.416678   0.000000
   33       71.598806   0.000000
   34       71.598825   0.000000
   35       74.501609   0.000000
   36       80.683405   0.000000
   37       80.686716   0.000000
   38       81.405353   0.000000
   39       82.416791   0.000000
   40       85.406278   0.000000
   41       85.450725   0.000000
   42       86.653869   0.000000
   43       87.806099   0.000000
   44       88.765274   0.000000
   45       89.114547   0.000000
   46       89.961478   0.000000
   47       91.223194   0.000000
   48       91.576454   0.000000
   49       93.255384   0.000000
   50       98.597758   0.000000
 
  0.0000000E+00  0.1538462E+00  0.1538462E+00  0.6250000E-02
    1      -52.203311   1.000000
    2      -26.145939   1.000000
    3      -26.068592   1.000000
    4      -26.068592   1.000000
    5       -4.729569   1.000000
    6        7.362806   1.000000
    7        9.363479   1.000000
    8        9.363479   1.000000
    9       10.553317   1.000000
   10       12.514361   0.000000
   11       12.915638   0.000000
   12       12.915639   0.000000
   13       14.890969   0.000000
   14       20.847423   0.000000
   15       26.838251   0.000000
   16       31.765817   0.000000
   17       31.765817   0.000000
   18       33.807619   0.000000
   19       35.302141   0.000000
   20       40.946404   0.000000
   21       44.350405   0.000000
   22       44.350406   0.000000
   23       46.643406   0.000000
   24       49.155434   0.000000
   25       49.350182   0.000000
   26       49.350182   0.000000
   27       56.616758   0.000000
   28       60.471466   0.000000
   29       61.575869   0.000000
   30       61.575869   0.000000
   31       69.724358   0.000000
   32       71.282342   0.000000
   33       71.373134   0.000000
   34       71.373299   0.000000
   35       75.326197   0.000000
   36       80.240279   0.000000
   37       80.253443   0.000000
   38       81.194777   0.000000
   39       81.517517   0.000000
   40       85.188873   0.000000
   41       85.284513   0.000000
   42       86.902968   0.000000
   43       87.313337   0.000000
   44       88.703039   0.000000
   45       89.135407   0.000000
   46       90.284186   0.000000
   47       91.955756   0.000000
   48       93.335366   0.000000
   49       95.574795   0.000000
   50       99.909842   0.000000
 
  0.0000000E+00  0.1666667E+00  0.1666667E+00  0.6250000E-02
    1      -52.199271   1.000000
    2      -26.163963   1.000000
    3      -26.075060   1.000000
    4      -26.075060   1.000000
    5       -4.636841   1.000000
    6        7.102720   1.000000
    7        9.289352   1.000000
    8        9.289352   1.000000
    9       10.460724   1.000000
   10       12.548444   0.000000
   11       13.068960   0.000000
   12       13.068961   0.000000
   13       15.066688   0.000000
   14       21.091405   0.000000
   15       26.854208   0.000000
   16       31.634194   0.000000
   17       31.634194   0.000000
   18       33.205136   0.000000
   19       35.668398   0.000000
   20       40.935067   0.000000
   21       44.721335   0.000000
   22       44.721336   0.000000
   23       46.748302   0.000000
   24       49.196594   0.000000
   25       49.196594   0.000000
   26       49.200656   0.000000
   27       56.065215   0.000000
   28       60.981127   0.000000
   29       61.435396   0.000000
   30       61.435396   0.000000
   31       70.001311   0.000000
   32       71.094516   0.000000
   33       71.094573   0.000000
   34       71.123811   0.000000
   35       76.158148   0.000000
   36       79.857044   0.000000
   37       79.858975   0.000000
   38       80.600206   0.000000
   39       80.954700   0.000000
   40       84.971660   0.000000
   41       85.177260   0.000000
   42       86.464841   0.000000
   43       86.684552   0.000000
   44       88.467899   0.000000
   45       88.810790   0.000000
   46       90.547501   0.000000
   47       91.966279   0.000000
   48       93.459290   0.000000
   49       97.285882   0.000000
   50      103.572688   0.000000
 
  0.0000000E+00  0.1794872E+00  0.1794872E+00  0.6250000E-02
    1      -52.195036   1.000000
    2      -26.182658   1.000000
    3      -26.081838   1.000000
    4      -26.081837   1.000000
    5       -4.541808   1.000000
    6        6.857783   1.000000
    7        9.222445   1.000000
    8        9.222446   1.000000
    9       10.365365   1.000000
   10       12.584329   0.000000
   11       13.215760   0.000000
   12       13.215760   0.000000
   13       15.228510   0.000000
   14       21.340366   0.000000
   15       26.870442   0.000000
   16       31.514699   0.000000
   17       31.514699   0.000000
   18       32.613891   0.000000
   19       36.059804   0.000000
   20       40.923374   0.000000
   21       45.102334   0.000000
   22       45.102335   0.000000
   23       46.788483   0.000000
   24       49.030173   0.000000
   25       49.030173   0.000000
   26       49.296825   0.000000
   27       55.526868   0.000000
   28       61.287310   0.000000
   29       61.287310   0.000000
   30       61.513659   0.000000
   31       70.283609   0.000000
   32       70.763565   0.000000
   33       70.763604   0.000000
   34       70.935011   0.000000
   35       76.996949   0.000000
   36       79.532789   0.000000
   37       79.534436   0.000000
   38       79.702032   0.000000
   39       80.695445   0.000000
   40       84.779309   0.000000
   41       84.899216   0.000000
   42       85.867350   0.000000
   43       86.863062   0.000000
   44       88.421227   0.000000
   45       88.962204   0.000000
   46       89.376041   0.000000
   47       91.204571   0.000000
   48       92.602685   0.000000
   49      100.390629   0.000000
   50      103.595637   0.000000
 
  0.0000000E+00  0.1923077E+00  0.1923077E+00  0.6250000E-02
    1      -52.190630   1.000000
    2      -26.201868   1.000000
    3      -26.088868   1.000000
    4      -26.088868   1.000000
    5       -4.445587   1.000000
    6        6.629375   1.000000
    7        9.162807   1.000000
    8        9.162807   1.000000
    9       10.267996   1.000000
   10       12.621813   0.000000
   11       13.354973   0.000000
   12       13.354973   0.000000
   13       15.376986   0.000000
   14       21.590849   0.000000
   15       26.886841   0.000000
   16       31.409576   0.000000
   17       31.409577   0.000000
   18       32.035538   0.000000
   19       36.475594   0.000000
   20       40.911732   0.000000
   21       45.491347   0.000000
   22       45.491349   0.000000
   23       46.779901   0.000000
   24       48.851395   0.000000
   25       48.851395   0.000000
   26       49.432204   0.000000
   27       55.003249   0.000000
   28       61.132096   0.000000
   29       61.132096   0.000000
   30       62.065040   0.000000
   31       70.385153   0.000000
   32       70.385176   0.000000
   33       70.567877   0.000000
   34       70.707773   0.000000
   35       77.851230   0.000000
   36       78.832868   0.000000
   37       79.265218   0.000000
   38       79.272413   0.000000
   39       80.427567   0.000000
   40       84.636441   0.000000
   41       84.868709   0.000000
   42       85.761731   0.000000
   43       86.760924   0.000000
   44       88.464129   0.000000
   45       88.914635   0.000000
   46       90.552143   0.000000
   47       92.519190   0.000000
   48       96.568039   0.000000
   49      101.668182   0.000000
   50      105.754053   0.000000
 
  0.0000000E+00  0.2051282E+00  0.2051282E+00  0.6250000E-02
    1      -52.186095   1.000000
    2      -26.221494   1.000000
    3      -26.096141   1.000000
    4      -26.096141   1.000000
    5       -4.349363   1.000000
    6        6.418791   1.000000
    7        9.110246   1.000000
    8        9.110246   1.000000
    9       10.169352   1.000000
   10       12.660696   0.000000
   11       13.485602   0.000000
   12       13.485602   0.000000
   13       15.512631   0.000000
   14       21.839307   0.000000
   15       26.903264   0.000000
   16       31.320478   0.000000
   17       31.320478   0.000000
   18       31.471714   0.000000
   19       36.914748   0.000000
   20       40.899797   0.000000
   21       45.886207   0.000000
   22       45.886208   0.000000
   23       46.740331   0.000000
   24       48.660754   0.000000
   25       48.660754   0.000000
   26       49.592918   0.000000
   27       54.494098   0.000000
   28       60.969669   0.000000
   29       60.969669   0.000000
   30       62.630931   0.000000
   31       69.965013   0.000000
   32       69.965015   0.000000
   33       70.431893   0.000000
   34       70.849963   0.000000
   35       78.012091   0.000000
   36       78.682979   0.000000
   37       79.050218   0.000000
   38       79.050666   0.000000
   39       80.148779   0.000000
   40       84.475289   0.000000
   41       84.511125   0.000000
   42       84.662296   0.000000
   43       86.815623   0.000000
   44       88.432704   0.000000
   45       88.480150   0.000000
   46       89.080252   0.000000
   47       90.344632   0.000000
   48       93.895951   0.000000
   49       97.027615   0.000000
   50      104.226831   0.000000
 
  0.0000000E+00  0.2179487E+00  0.2179487E+00  0.6250000E-02
    1      -52.181451   1.000000
    2      -26.241362   1.000000
    3      -26.103583   1.000000
    4      -26.103583   1.000000
    5       -4.254345   1.000000
    6        6.227076   1.000000
    7        9.064715   1.000000
    8        9.064715   1.000000
    9       10.070147   1.000000
   10       12.700687   0.000000
   11       13.606794   0.000000
   12       13.606794   0.000000
   13       15.635950   0.000000
   14       22.082414   0.000000
   15       26.919694   0.000000
   16       30.924183   0.000000
   17       31.249435   0.000000
   18       31.249435   0.000000