 vasp.5.4.1 24Jun15 (build Jan 21 2017 23:00:56) complex                        
  
 executed on           IFC91_ompi date 2017.01.22  08:28:17
 running on    1 total cores
 distrk:  each k-point on    1 cores,    1 groups
 distr:  one band on NCORES_PER_BAND=   1 cores,    1 groups


--------------------------------------------------------------------------------------------------------


 INCAR:
 POTCAR:    PAW_PBE V_sv 02Aug2007                
 POTCAR:    PAW_PBE N_s 07Sep2000                 
 POTCAR:    PAW_PBE V_sv 02Aug2007                
   VRHFIN =V: p6 d4 s1                                                          
   LEXCH  = PE                                                                  
   EATOM  =  1952.1149 eV,  143.4764 Ry                                         
                                                                                
   TITEL  = PAW_PBE V_sv 02Aug2007                                              
   LULTRA =        F    use ultrasoft PP ?                                      
   IUNSCR =        1    unscreen: 0-lin 1-nonlin 2-no                           
   RPACOR =    2.000    partial core radius                                     
   POMASS =   50.941; ZVAL   =   13.000    mass and valenz                      
   RCORE  =    2.300    outmost cutoff radius                                   
   RWIGS  =    2.300; RWIGS  =    1.217    wigner-seitz radius (au A)           
   ENMAX  =  263.673; ENMIN  =  197.755 eV                                      
   ICORE  =        3    local potential                                         
   LCOR   =        T    correct aug charges                                     
   LPAW   =        T    paw PP                                                  
   EAUG   =  526.568                                                            
   RMAX   =    2.359    core radius for proj-oper                               
   RAUG   =    1.300    factor for augmentation sphere                          
   RDEP   =    2.430    radius for radial grids                                 
   RDEPT  =    1.870    core radius for aug-charge                              
                                                                                
   Atomic configuration                                                         
    8 entries                                                                   
     n  l   j            E        occ.                                          
     1  0  0.50     -5360.7193   2.0000                                         
     2  0  0.50      -598.4546   2.0000                                         
     2  1  1.50      -499.0155   6.0000                                         
     3  0  0.50       -66.5711   2.0000                                         
     4  0  0.50        -3.8743   1.0000                                         
     3  1  1.50       -40.5282   6.0000                                         
     3  2  2.50        -2.4291   4.0000                                         
     4  3  2.50        -1.3606   0.0000                                         
   Description                                                                  
     l       E           TYP  RCUT    TYP  RCUT                                 
     0    -66.5711413     23  1.800                                             
     0     -3.8742736     23  2.300                                             
     1    -40.5282350     23  2.000                                             
     1      5.4423304     23  2.000                                             
     2     -2.4290848     23  2.300                                             
     2     -1.0472431     23  2.300                                             
     3     -1.3605826     23  2.300                                             
  local pseudopotential read in
  partial core-charges read in
  partial kinetic energy density read in
  atomic valenz-charges read in
  non local Contribution for L=           0  read in
    real space projection operators read in
  non local Contribution for L=           0  read in
    real space projection operators read in
  non local Contribution for L=           1  read in
    real space projection operators read in
  non local Contribution for L=           1  read in
    real space projection operators read in
  non local Contribution for L=           2  read in
    real space projection operators read in
  non local Contribution for L=           2  read in
    real space projection operators read in
    PAW grid and wavefunctions read in
 
   number of l-projection  operators is LMAX  =           6
   number of lm-projection operators is LMMAX =          18
 
 POTCAR:    PAW_PBE N_s 07Sep2000                 
   VRHFIN =N: s2p3                                                              
   LEXCH  = PE                                                                  
   EATOM  =   264.5486 eV,   19.4438 Ry                                         
                                                                                
   TITEL  = PAW_PBE N_s 07Sep2000                                               
   LULTRA =        F    use ultrasoft PP ?                                      
   IUNSCR =        0    unscreen: 0-lin 1-nonlin 2-no                           
   RPACOR =    0.000    partial core radius                                     
   POMASS =   14.001; ZVAL   =    5.000    mass and valenz                      
   RCORE  =    1.850    outmost cutoff radius                                   
   RWIGS  =    1.850; RWIGS  =    0.979    wigner-seitz radius (au A)           
   ENMAX  =  279.692; ENMIN  =  209.769 eV                                      
   RCLOC  =    0.803    cutoff for local pot                                    
   LCOR   =        T    correct aug charges                                     
   LPAW   =        T    paw PP                                                  
   EAUG   =  384.743                                                            
   DEXC   =    0.000                                                            
   RMAX   =    1.893    core radius for proj-oper                               
   RAUG   =    1.300    factor for augmentation sphere                          
   RDEP   =    1.933    radius for radial grids                                 
   RDEPT  =    1.632    core radius for aug-charge                              
                                                                                
   Atomic configuration                                                         
    4 entries                                                                   
     n  l   j            E        occ.                                          
     1  0  0.50      -384.7179   2.0000                                         
     2  0  0.50       -18.5828   2.0000                                         
     2  1  0.50        -7.0898   3.0000                                         
     3  2  1.50        -1.3606   0.0000                                         
   Description                                                                  
     l       E           TYP  RCUT    TYP  RCUT                                 
     0    -18.5828119     23  1.500                                             
     0    -19.9433945     23  1.500                                             
     1     -7.0897853     23  1.850                                             
     1     -4.8150613     23  1.850                                             
  local pseudopotential read in
  atomic valenz-charges read in
  non local Contribution for L=           0  read in
    real space projection operators read in
  non local Contribution for L=           0  read in
    real space projection operators read in
  non local Contribution for L=           1  read in
    real space projection operators read in
  non local Contribution for L=           1  read in
    real space projection operators read in
    PAW grid and wavefunctions read in
 
   number of l-projection  operators is LMAX  =           4
   number of lm-projection operators is LMMAX =           8
 

 ----------------------------------------------------------------------------- 
|                                                                             |
|  ADVICE TO THIS USER RUNNING 'VASP/VAMP'   (HEAR YOUR MASTER'S VOICE ...):  |
|                                                                             |
|      You enforced a specific xc-type in the INCAR file,                     |
|      a different type was found on the POTCAR file                          |
|          I HOPE YOU KNOW, WHAT YOU ARE  DOING                               |
|                                                                             |
 ----------------------------------------------------------------------------- 

  PAW_PBE V_sv 02Aug2007                :
 energy of atom  1       EATOM=-1952.1149
 kinetic energy error for atom=    0.0070 (will be added to EATOM!!)
  PAW_PBE N_s 07Sep2000                 :
 energy of atom  2       EATOM= -264.5486
 kinetic energy error for atom=    0.0039 (will be added to EATOM!!)
 
 
 POSCAR: VN                                      
  positions in direct lattice
  No initial velocities read in
 exchange correlation table for  LEXCH =       13
   RHO(1)=    0.500       N(1)  =     2000
   RHO(2)=  100.500       N(2)  =     4000
 


--------------------------------------------------------------------------------------------------------


 ion  position               nearest neighbor table
   1  0.000  0.000  0.000-   2 2.04   2 2.04   2 2.04   2 2.04   2 2.04   2 2.04
   2  0.500  0.500  0.500-   1 2.04   1 2.04   1 2.04   1 2.04   1 2.04   1 2.04
 
  LATTYP: Found a face centered cubic cell.
 ALAT       =     4.0711530000
  
  Lattice vectors:
  
 A1 = (   0.0000000000,   2.0355765000,   2.0355765000)
 A2 = (   2.0355765000,   0.0000000000,   2.0355765000)
 A3 = (   2.0355765000,   2.0355765000,   0.0000000000)


Analysis of symmetry for initial positions (statically):
=====================================================================
 Subroutine PRICEL returns:
 Original cell was already a primitive cell.
 

 Routine SETGRP: Setting up the symmetry group for a 
 face centered cubic supercell.


 Subroutine GETGRP returns: Found 48 space group operations
 (whereof 48 operations were pure point group operations)
 out of a pool of 48 trial point group operations.


The static configuration has the point symmetry O_h .


Analysis of symmetry for dynamics (positions and initial velocities):
=====================================================================
 Subroutine PRICEL returns:
 Original cell was already a primitive cell.
 

 Routine SETGRP: Setting up the symmetry group for a 
 face centered cubic supercell.


 Subroutine GETGRP returns: Found 48 space group operations
 (whereof 48 operations were pure point group operations)
 out of a pool of 48 trial point group operations.


The dynamic configuration has the point symmetry O_h .


 Subroutine INISYM returns: Found 48 space group operations
 (whereof 48 operations are pure point group operations),
 and found     1 'primitive' translations

 
 
 KPOINTS: Automatic mesh                          

Automatic generation of k-mesh.
Space group operators:
 irot       det(A)        alpha          n_x          n_y          n_z        tau_x        tau_y        tau_z
    1     1.000000     0.000000     1.000000     0.000000     0.000000     0.000000     0.000000     0.000000
    2    -1.000000     0.000000     1.000000     0.000000     0.000000     0.000000     0.000000     0.000000
    3     1.000000   120.000000    -0.577350    -0.577350    -0.577350     0.000000     0.000000     0.000000
    4    -1.000000   120.000000    -0.577350    -0.577350    -0.577350     0.000000     0.000000     0.000000
    5     1.000000   120.000000     0.577350     0.577350     0.577350     0.000000     0.000000     0.000000
    6    -1.000000   120.000000     0.577350     0.577350     0.577350     0.000000     0.000000     0.000000
    7     1.000000    90.000000     0.000000     0.000000    -1.000000     0.000000     0.000000     0.000000
    8    -1.000000    90.000000     0.000000     0.000000    -1.000000     0.000000     0.000000     0.000000
    9     1.000000   180.000000     0.000000     0.707107     0.707107     0.000000     0.000000     0.000000
   10    -1.000000   180.000000     0.000000     0.707107     0.707107     0.000000     0.000000     0.000000
   11     1.000000    90.000000     0.000000     1.000000     0.000000     0.000000     0.000000     0.000000
   12    -1.000000    90.000000     0.000000     1.000000     0.000000     0.000000     0.000000     0.000000
   13     1.000000   180.000000     0.000000     0.000000     1.000000     0.000000     0.000000     0.000000
   14    -1.000000   180.000000     0.000000     0.000000     1.000000     0.000000     0.000000     0.000000
   15     1.000000   120.000000    -0.577350     0.577350     0.577350     0.000000     0.000000     0.000000
   16    -1.000000   120.000000    -0.577350     0.577350     0.577350     0.000000     0.000000     0.000000
   17     1.000000   120.000000    -0.577350     0.577350    -0.577350     0.000000     0.000000     0.000000
   18    -1.000000   120.000000    -0.577350     0.577350    -0.577350     0.000000     0.000000     0.000000
   19     1.000000    90.000000     0.000000     0.000000     1.000000     0.000000     0.000000     0.000000
   20    -1.000000    90.000000     0.000000     0.000000     1.000000     0.000000     0.000000     0.000000
   21     1.000000    90.000000    -1.000000     0.000000     0.000000     0.000000     0.000000     0.000000
   22    -1.000000    90.000000    -1.000000     0.000000     0.000000     0.000000     0.000000     0.000000
   23     1.000000   180.000000     0.707107     0.000000     0.707107     0.000000     0.000000     0.000000
   24    -1.000000   180.000000     0.707107     0.000000     0.707107     0.000000     0.000000     0.000000
   25     1.000000   120.000000     0.577350    -0.577350     0.577350     0.000000     0.000000     0.000000
   26    -1.000000   120.000000     0.577350    -0.577350     0.577350     0.000000     0.000000     0.000000
   27     1.000000   120.000000    -0.577350    -0.577350     0.577350     0.000000     0.000000     0.000000
   28    -1.000000   120.000000    -0.577350    -0.577350     0.577350     0.000000     0.000000     0.000000
   29     1.000000   180.000000     1.000000     0.000000     0.000000     0.000000     0.000000     0.000000
   30    -1.000000   180.000000     1.000000     0.000000     0.000000     0.000000     0.000000     0.000000
   31     1.000000    90.000000     0.000000    -1.000000     0.000000     0.000000     0.000000     0.000000
   32    -1.000000    90.000000     0.000000    -1.000000     0.000000     0.000000     0.000000     0.000000
   33     1.000000   180.000000     0.707107     0.707107     0.000000     0.000000     0.000000     0.000000
   34    -1.000000   180.000000     0.707107     0.707107     0.000000     0.000000     0.000000     0.000000
   35     1.000000    90.000000     1.000000     0.000000     0.000000     0.000000     0.000000     0.000000
   36    -1.000000    90.000000     1.000000     0.000000     0.000000     0.000000     0.000000     0.000000
   37     1.000000   120.000000     0.577350    -0.577350    -0.577350     0.000000     0.000000     0.000000
   38    -1.000000   120.000000     0.577350    -0.577350    -0.577350     0.000000     0.000000     0.000000
   39     1.000000   180.000000     0.000000     1.000000     0.000000     0.000000     0.000000     0.000000
   40    -1.000000   180.000000     0.000000     1.000000     0.000000     0.000000     0.000000     0.000000
   41     1.000000   120.000000     0.577350     0.577350    -0.577350     0.000000     0.000000     0.000000
   42    -1.000000   120.000000     0.577350     0.577350    -0.577350     0.000000     0.000000     0.000000
   43     1.000000   180.000000     0.000000    -0.707107     0.707107     0.000000     0.000000     0.000000
   44    -1.000000   180.000000     0.000000    -0.707107     0.707107     0.000000     0.000000     0.000000
   45     1.000000   180.000000     0.707107    -0.707107     0.000000     0.000000     0.000000     0.000000
   46    -1.000000   180.000000     0.707107    -0.707107     0.000000     0.000000     0.000000     0.000000
   47     1.000000   180.000000     0.707107     0.000000    -0.707107     0.000000     0.000000     0.000000
   48    -1.000000   180.000000     0.707107     0.000000    -0.707107     0.000000     0.000000     0.000000
 
 Subroutine IBZKPT returns following result:
 ===========================================
 
 Found    286 irreducible k-points:
 
 Following reciprocal coordinates:
            Coordinates               Weight
  0.000000  0.000000  0.000000      1.000000
  0.047619  0.000000  0.000000      8.000000
  0.095238  0.000000  0.000000      8.000000
  0.142857  0.000000  0.000000      8.000000
  0.190476  0.000000  0.000000      8.000000
  0.238095  0.000000  0.000000      8.000000
  0.285714  0.000000  0.000000      8.000000
  0.333333  0.000000  0.000000      8.000000
  0.380952  0.000000  0.000000      8.000000
  0.428571  0.000000  0.000000      8.000000
  0.476190  0.000000  0.000000      8.000000
  0.047619  0.047619  0.000000      6.000000
  0.095238  0.047619  0.000000     24.000000
  0.142857  0.047619  0.000000     24.000000
  0.190476  0.047619  0.000000     24.000000
  0.238095  0.047619  0.000000     24.000000
  0.285714  0.047619  0.000000     24.000000
  0.333333  0.047619  0.000000     24.000000
  0.380952  0.047619  0.000000     24.000000
  0.428571  0.047619  0.000000     24.000000
  0.476190  0.047619  0.000000     24.000000
 -0.476190  0.047619  0.000000     24.000000
 -0.428571  0.047619  0.000000     24.000000
 -0.380952  0.047619  0.000000     24.000000
 -0.333333  0.047619  0.000000     24.000000
 -0.285714  0.047619  0.000000     24.000000
 -0.238095  0.047619  0.000000     24.000000
 -0.190476  0.047619  0.000000     24.000000
 -0.142857  0.047619  0.000000     24.000000
 -0.095238  0.047619  0.000000     24.000000
 -0.047619  0.047619  0.000000     12.000000
  0.095238  0.095238  0.000000      6.000000
  0.142857  0.095238  0.000000     24.000000
  0.190476  0.095238  0.000000     24.000000
  0.238095  0.095238  0.000000     24.000000
  0.285714  0.095238  0.000000     24.000000
  0.333333  0.095238  0.000000     24.000000
  0.380952  0.095238  0.000000     24.000000
  0.428571  0.095238  0.000000     24.000000
  0.476190  0.095238  0.000000     24.000000
 -0.476190  0.095238  0.000000     24.000000
 -0.428571  0.095238  0.000000     24.000000
 -0.380952  0.095238  0.000000     24.000000
 -0.333333  0.095238  0.000000     24.000000
 -0.285714  0.095238  0.000000     24.000000
 -0.238095  0.095238  0.000000     24.000000
 -0.190476  0.095238  0.000000     24.000000
 -0.142857  0.095238  0.000000     24.000000
 -0.095238  0.095238  0.000000     12.000000
  0.142857  0.142857  0.000000      6.000000
  0.190476  0.142857  0.000000     24.000000
  0.238095  0.142857  0.000000     24.000000
  0.285714  0.142857  0.000000     24.000000
  0.333333  0.142857  0.000000     24.000000
  0.380952  0.142857  0.000000     24.000000
  0.428571  0.142857  0.000000     24.000000
  0.476190  0.142857  0.000000     24.000000
 -0.476190  0.142857  0.000000     24.000000
 -0.428571  0.142857  0.000000     24.000000
 -0.380952  0.142857  0.000000     24.000000
 -0.333333  0.142857  0.000000     24.000000
 -0.285714  0.142857  0.000000     24.000000
 -0.238095  0.142857  0.000000     24.000000
 -0.190476  0.142857  0.000000     24.000000
 -0.142857  0.142857  0.000000     12.000000
  0.190476  0.190476  0.000000      6.000000
  0.238095  0.190476  0.000000     24.000000
  0.285714  0.190476  0.000000     24.000000
  0.333333  0.190476  0.000000     24.000000
  0.380952  0.190476  0.000000     24.000000
  0.428571  0.190476  0.000000     24.000000
  0.476190  0.190476  0.000000     24.000000
 -0.476190  0.190476  0.000000     24.000000
 -0.428571  0.190476  0.000000     24.000000
 -0.380952  0.190476  0.000000     24.000000
 -0.333333  0.190476  0.000000     24.000000
 -0.285714  0.190476  0.000000     24.000000
 -0.238095  0.190476  0.000000     24.000000
 -0.190476  0.190476  0.000000     12.000000
  0.238095  0.238095  0.000000      6.000000
  0.285714  0.238095  0.000000     24.000000
  0.333333  0.238095  0.000000     24.000000
  0.380952  0.238095  0.000000     24.000000
  0.428571  0.238095  0.000000     24.000000
  0.476190  0.238095  0.000000     24.000000
 -0.476190  0.238095  0.000000     24.000000
 -0.428571  0.238095  0.000000     24.000000
 -0.380952  0.238095  0.000000     24.000000
 -0.333333  0.238095  0.000000     24.000000
 -0.285714  0.238095  0.000000     24.000000
 -0.238095  0.238095  0.000000     12.000000
  0.285714  0.285714  0.000000      6.000000
  0.333333  0.285714  0.000000     24.000000
  0.380952  0.285714  0.000000     24.000000
  0.428571  0.285714  0.000000     24.000000
  0.476190  0.285714  0.000000     24.000000
 -0.476190  0.285714  0.000000     24.000000
 -0.428571  0.285714  0.000000     24.000000
 -0.380952  0.285714  0.000000     24.000000
 -0.333333  0.285714  0.000000     24.000000
 -0.285714  0.285714  0.000000     12.000000
  0.333333  0.333333  0.000000      6.000000
  0.380952  0.333333  0.000000     24.000000
  0.428571  0.333333  0.000000     24.000000
  0.476190  0.333333  0.000000     24.000000
 -0.476190  0.333333  0.000000     24.000000
 -0.428571  0.333333  0.000000     24.000000
 -0.380952  0.333333  0.000000     24.000000
 -0.333333  0.333333  0.000000     12.000000
  0.380952  0.380952  0.000000      6.000000
  0.428571  0.380952  0.000000     24.000000
  0.476190  0.380952  0.000000     24.000000
 -0.476190  0.380952  0.000000     24.000000
 -0.428571  0.380952  0.000000     24.000000
 -0.380952  0.380952  0.000000     12.000000
  0.428571  0.428571  0.000000      6.000000
  0.476190  0.428571  0.000000     24.000000
 -0.476190  0.428571  0.000000     24.000000
 -0.428571  0.428571  0.000000     12.000000
  0.476190  0.476190  0.000000      6.000000
 -0.476190  0.476190  0.000000     12.000000
  0.142857  0.095238  0.047619     24.000000
  0.190476  0.095238  0.047619     48.000000
  0.238095  0.095238  0.047619     48.000000
  0.285714  0.095238  0.047619     48.000000
  0.333333  0.095238  0.047619     48.000000
  0.380952  0.095238  0.047619     48.000000
  0.428571  0.095238  0.047619     48.000000
  0.476190  0.095238  0.047619     48.000000
 -0.476190  0.095238  0.047619     48.000000
  0.190476  0.142857  0.047619     24.000000
  0.238095  0.142857  0.047619     48.000000
  0.285714  0.142857  0.047619     48.000000
  0.333333  0.142857  0.047619     48.000000
  0.380952  0.142857  0.047619     48.000000
  0.428571  0.142857  0.047619     48.000000
  0.476190  0.142857  0.047619     48.000000
 -0.476190  0.142857  0.047619     48.000000
 -0.428571  0.142857  0.047619     48.000000
 -0.380952  0.142857  0.047619     48.000000
 -0.333333  0.142857  0.047619     48.000000
 -0.285714  0.142857  0.047619     48.000000
 -0.238095  0.142857  0.047619     48.000000
 -0.190476  0.142857  0.047619     48.000000
 -0.142857  0.142857  0.047619     48.000000
 -0.095238  0.142857  0.047619     24.000000
  0.238095  0.190476  0.047619     24.000000
  0.285714  0.190476  0.047619     48.000000
  0.333333  0.190476  0.047619     48.000000
  0.380952  0.190476  0.047619     48.000000
  0.428571  0.190476  0.047619     48.000000
  0.476190  0.190476  0.047619     48.000000
 -0.476190  0.190476  0.047619     48.000000
 -0.428571  0.190476  0.047619     48.000000
 -0.380952  0.190476  0.047619     48.000000
 -0.333333  0.190476  0.047619     48.000000
 -0.285714  0.190476  0.047619     48.000000
 -0.238095  0.190476  0.047619     48.000000
 -0.190476  0.190476  0.047619     48.000000
 -0.142857  0.190476  0.047619     24.000000
  0.285714  0.238095  0.047619     24.000000
  0.333333  0.238095  0.047619     48.000000
  0.380952  0.238095  0.047619     48.000000
  0.428571  0.238095  0.047619     48.000000
  0.476190  0.238095  0.047619     48.000000
 -0.476190  0.238095  0.047619     48.000000
 -0.428571  0.238095  0.047619     48.000000
 -0.380952  0.238095  0.047619     48.000000
 -0.333333  0.238095  0.047619     48.000000
 -0.285714  0.238095  0.047619     48.000000
 -0.238095  0.238095  0.047619     48.000000
 -0.190476  0.238095  0.047619     24.000000
  0.333333  0.285714  0.047619     24.000000
  0.380952  0.285714  0.047619     48.000000
  0.428571  0.285714  0.047619     48.000000
  0.476190  0.285714  0.047619     48.000000
 -0.476190  0.285714  0.047619     48.000000
 -0.428571  0.285714  0.047619     48.000000
 -0.380952  0.285714  0.047619     48.000000
 -0.333333  0.285714  0.047619     48.000000
 -0.285714  0.285714  0.047619     48.000000
 -0.238095  0.285714  0.047619     24.000000
  0.380952  0.333333  0.047619     24.000000
  0.428571  0.333333  0.047619     48.000000
  0.476190  0.333333  0.047619     48.000000
 -0.476190  0.333333  0.047619     48.000000
 -0.428571  0.333333  0.047619     48.000000
 -0.380952  0.333333  0.047619     48.000000
 -0.333333  0.333333  0.047619     48.000000
 -0.285714  0.333333  0.047619     24.000000
  0.428571  0.380952  0.047619     24.000000
  0.476190  0.380952  0.047619     48.000000
 -0.476190  0.380952  0.047619     48.000000
 -0.428571  0.380952  0.047619     48.000000
 -0.380952  0.380952  0.047619     48.000000
 -0.333333  0.380952  0.047619     24.000000
  0.476190  0.428571  0.047619     24.000000
 -0.476190  0.428571  0.047619     48.000000
 -0.428571  0.428571  0.047619     48.000000
 -0.380952  0.428571  0.047619     24.000000
 -0.476190  0.476190  0.047619     24.000000
 -0.428571  0.476190  0.047619     24.000000
  0.285714  0.190476  0.095238     24.000000
  0.333333  0.190476  0.095238     48.000000
  0.380952  0.190476  0.095238     48.000000
  0.428571  0.190476  0.095238     48.000000
  0.476190  0.190476  0.095238     48.000000
 -0.476190  0.190476  0.095238     48.000000
 -0.428571  0.190476  0.095238     48.000000
  0.333333  0.238095  0.095238     24.000000
  0.380952  0.238095  0.095238     48.000000
  0.428571  0.238095  0.095238     48.000000
  0.476190  0.238095  0.095238     48.000000
 -0.476190  0.238095  0.095238     48.000000
 -0.428571  0.238095  0.095238     48.000000
 -0.380952  0.238095  0.095238     48.000000
 -0.333333  0.238095  0.095238     48.000000
 -0.285714  0.238095  0.095238     48.000000
 -0.238095  0.238095  0.095238     48.000000
 -0.190476  0.238095  0.095238     48.000000
 -0.142857  0.238095  0.095238     24.000000
  0.380952  0.285714  0.095238     24.000000
  0.428571  0.285714  0.095238     48.000000
  0.476190  0.285714  0.095238     48.000000
 -0.476190  0.285714  0.095238     48.000000
 -0.428571  0.285714  0.095238     48.000000
 -0.380952  0.285714  0.095238     48.000000
 -0.333333  0.285714  0.095238     48.000000
 -0.285714  0.285714  0.095238     48.000000
 -0.238095  0.285714  0.095238     48.000000
 -0.190476  0.285714  0.095238     24.000000
  0.428571  0.333333  0.095238     24.000000
  0.476190  0.333333  0.095238     48.000000
 -0.476190  0.333333  0.095238     48.000000
 -0.428571  0.333333  0.095238     48.000000
 -0.380952  0.333333  0.095238     48.000000
 -0.333333  0.333333  0.095238     48.000000
 -0.285714  0.333333  0.095238     48.000000
 -0.238095  0.333333  0.095238     24.000000
  0.476190  0.380952  0.095238     24.000000
 -0.476190  0.380952  0.095238     48.000000
 -0.428571  0.380952  0.095238     48.000000
 -0.380952  0.380952  0.095238     48.000000
 -0.333333  0.380952  0.095238     48.000000
 -0.285714  0.380952  0.095238     24.000000
 -0.476190  0.428571  0.095238     24.000000
 -0.428571  0.428571  0.095238     48.000000
 -0.380952  0.428571  0.095238     48.000000
 -0.333333  0.428571  0.095238     24.000000
 -0.428571  0.476190  0.095238     24.000000
 -0.380952  0.476190  0.095238     24.000000
  0.428571  0.285714  0.142857     24.000000
  0.476190  0.285714  0.142857     48.000000
 -0.476190  0.285714  0.142857     48.000000
 -0.428571  0.285714  0.142857     48.000000
 -0.380952  0.285714  0.142857     48.000000
  0.476190  0.333333  0.142857     24.000000
 -0.476190  0.333333  0.142857     48.000000
 -0.428571  0.333333  0.142857     48.000000
 -0.380952  0.333333  0.142857     48.000000
 -0.333333  0.333333  0.142857     48.000000
 -0.285714  0.333333  0.142857     48.000000
 -0.238095  0.333333  0.142857     48.000000
 -0.190476  0.333333  0.142857     24.000000
 -0.476190  0.380952  0.142857     24.000000
 -0.428571  0.380952  0.142857     48.000000
 -0.380952  0.380952  0.142857     48.000000
 -0.333333  0.380952  0.142857     48.000000
 -0.285714  0.380952  0.142857     48.000000
 -0.238095  0.380952  0.142857     24.000000
 -0.428571  0.428571  0.142857     24.000000
 -0.380952  0.428571  0.142857     48.000000
 -0.333333  0.428571  0.142857     48.000000
 -0.285714  0.428571  0.142857     24.000000
 -0.380952  0.476190  0.142857     24.000000
 -0.333333  0.476190  0.142857     24.000000
 -0.428571  0.380952  0.190476     24.000000
 -0.380952  0.380952  0.190476     48.000000
 -0.333333  0.380952  0.190476     48.000000
 -0.380952  0.428571  0.190476     24.000000
 -0.333333  0.428571  0.190476     48.000000
 -0.285714  0.428571  0.190476     48.000000
 -0.238095  0.428571  0.190476     24.000000
 -0.333333  0.476190  0.190476     24.000000
 -0.285714  0.476190  0.190476     24.000000
 -0.285714  0.476190  0.238095     24.000000
 
 Following cartesian coordinates:
            Coordinates               Weight
  0.000000  0.000000  0.000000      1.000000
 -0.047619  0.047619  0.047619      8.000000
 -0.095238  0.095238  0.095238      8.000000
 -0.142857  0.142857  0.142857      8.000000
 -0.190476  0.190476  0.190476      8.000000
 -0.238095  0.238095  0.238095      8.000000
 -0.285714  0.285714  0.285714      8.000000
 -0.333333  0.333333  0.333333      8.000000
 -0.380952  0.380952  0.380952      8.000000
 -0.428571  0.428571  0.428571      8.000000
 -0.476190  0.476190  0.476190      8.000000
  0.000000  0.000000  0.095238      6.000000
 -0.047619  0.047619  0.142857     24.000000
 -0.095238  0.095238  0.190476     24.000000
 -0.142857  0.142857  0.238095     24.000000
 -0.190476  0.190476  0.285714     24.000000
 -0.238095  0.238095  0.333333     24.000000
 -0.285714  0.285714  0.380952     24.000000
 -0.333333  0.333333  0.428571     24.000000
 -0.380952  0.380952  0.476190     24.000000
 -0.428571  0.428571  0.523810     24.000000
  0.523810 -0.523810 -0.428571     24.000000
  0.476190 -0.476190 -0.380952     24.000000
  0.428571 -0.428571 -0.333333     24.000000
  0.380952 -0.380952 -0.285714     24.000000
  0.333333 -0.333333 -0.238095     24.000000
  0.285714 -0.285714 -0.190476     24.000000
  0.238095 -0.238095 -0.142857     24.000000
  0.190476 -0.190476 -0.095238     24.000000
  0.142857 -0.142857 -0.047619     24.000000
  0.095238 -0.095238  0.000000     12.000000
  0.000000  0.000000  0.190476      6.000000
 -0.047619  0.047619  0.238095     24.000000
 -0.095238  0.095238  0.285714     24.000000
 -0.142857  0.142857  0.333333     24.000000
 -0.190476  0.190476  0.380952     24.000000
 -0.238095  0.238095  0.428571     24.000000
 -0.285714  0.285714  0.476190     24.000000
 -0.333333  0.333333  0.523810     24.000000
 -0.380952  0.380952  0.571429     24.000000
  0.571429 -0.571429 -0.380952     24.000000
  0.523810 -0.523810 -0.333333     24.000000
  0.476190 -0.476190 -0.285714     24.000000
  0.428571 -0.428571 -0.238095     24.000000
  0.380952 -0.380952 -0.190476     24.000000
  0.333333 -0.333333 -0.142857     24.000000
  0.285714 -0.285714 -0.095238     24.000000
  0.238095 -0.238095 -0.047619     24.000000
  0.190476 -0.190476  0.000000     12.000000
  0.000000  0.000000  0.285714      6.000000
 -0.047619  0.047619  0.333333     24.000000
 -0.095238  0.095238  0.380952     24.000000
 -0.142857  0.142857  0.428571     24.000000
 -0.190476  0.190476  0.476190     24.000000
 -0.238095  0.238095  0.523810     24.000000
 -0.285714  0.285714  0.571429     24.000000
 -0.333333  0.333333  0.619048     24.000000
  0.619048 -0.619048 -0.333333     24.000000
  0.571429 -0.571429 -0.285714     24.000000
  0.523810 -0.523810 -0.238095     24.000000
  0.476190 -0.476190 -0.190476     24.000000
  0.428571 -0.428571 -0.142857     24.000000
  0.380952 -0.380952 -0.095238     24.000000
  0.333333 -0.333333 -0.047619     24.000000
  0.285714 -0.285714  0.000000     12.000000
  0.000000  0.000000  0.380952      6.000000
 -0.047619  0.047619  0.428571     24.000000
 -0.095238  0.095238  0.476190     24.000000
 -0.142857  0.142857  0.523810     24.000000
 -0.190476  0.190476  0.571429     24.000000
 -0.238095  0.238095  0.619048     24.000000
 -0.285714  0.285714  0.666667     24.000000
  0.666667 -0.666667 -0.285714     24.000000
  0.619048 -0.619048 -0.238095     24.000000
  0.571429 -0.571429 -0.190476     24.000000
  0.523810 -0.523810 -0.142857     24.000000
  0.476190 -0.476190 -0.095238     24.000000
  0.428571 -0.428571 -0.047619     24.000000
  0.380952 -0.380952  0.000000     12.000000
  0.000000  0.000000  0.476190      6.000000
 -0.047619  0.047619  0.523810     24.000000
 -0.095238  0.095238  0.571429     24.000000
 -0.142857  0.142857  0.619048     24.000000
 -0.190476  0.190476  0.666667     24.000000
 -0.238095  0.238095  0.714286     24.000000
  0.714286 -0.714286 -0.238095     24.000000
  0.666667 -0.666667 -0.190476     24.000000
  0.619048 -0.619048 -0.142857     24.000000
  0.571429 -0.571429 -0.095238     24.000000
  0.523810 -0.523810 -0.047619     24.000000
  0.476190 -0.476190  0.000000     12.000000
  0.000000  0.000000  0.571429      6.000000
 -0.047619  0.047619  0.619048     24.000000
 -0.095238  0.095238  0.666667     24.000000
 -0.142857  0.142857  0.714286     24.000000
 -0.190476  0.190476  0.761905     24.000000
  0.761905 -0.761905 -0.190476     24.000000
  0.714286 -0.714286 -0.142857     24.000000
  0.666667 -0.666667 -0.095238     24.000000
  0.619048 -0.619048 -0.047619     24.000000
  0.571429 -0.571429  0.000000     12.000000
  0.000000  0.000000  0.666667      6.000000
 -0.047619  0.047619  0.714286     24.000000
 -0.095238  0.095238  0.761905     24.000000
 -0.142857  0.142857  0.809524     24.000000
  0.809524 -0.809524 -0.142857     24.000000
  0.761905 -0.761905 -0.095238     24.000000
  0.714286 -0.714286 -0.047619     24.000000
  0.666667 -0.666667  0.000000     12.000000
  0.000000  0.000000  0.761905      6.000000
 -0.047619  0.047619  0.809524     24.000000
 -0.095238  0.095238  0.857143     24.000000
  0.857143 -0.857143 -0.095238     24.000000
  0.809524 -0.809524 -0.047619     24.000000
  0.761905 -0.761905  0.000000     12.000000
  0.000000  0.000000  0.857143      6.000000
 -0.047619  0.047619  0.904762     24.000000
  0.904762 -0.904762 -0.047619     24.000000
  0.857143 -0.857143  0.000000     12.000000
  0.000000  0.000000  0.952381      6.000000
  0.952381 -0.952381  0.000000     12.000000
 -0.000000  0.095238  0.190476     24.000000
 -0.047619  0.142857  0.238095     48.000000
 -0.095238  0.190476  0.285714     48.000000
 -0.142857  0.238095  0.333333     48.000000
 -0.190476  0.285714  0.380952     48.000000
 -0.238095  0.333333  0.428571     48.000000
 -0.285714  0.380952  0.476190     48.000000
 -0.333333  0.428571  0.523810     48.000000
  0.619048 -0.523810 -0.428571     48.000000
  0.000000  0.095238  0.285714     24.000000
 -0.047619  0.142857  0.333333     48.000000
 -0.095238  0.190476  0.380952     48.000000
 -0.142857  0.238095  0.428571     48.000000
 -0.190476  0.285714  0.476190     48.000000
 -0.238095  0.333333  0.523810     48.000000
 -0.285714  0.380952  0.571429     48.000000
  0.666667 -0.571429 -0.380952     48.000000
  0.619048 -0.523810 -0.333333     48.000000
  0.571429 -0.476190 -0.285714     48.000000
  0.523810 -0.428571 -0.238095     48.000000
  0.476190 -0.380952 -0.190476     48.000000
  0.428571 -0.333333 -0.142857     48.000000
  0.380952 -0.285714 -0.095238     48.000000
  0.333333 -0.238095 -0.047619     48.000000
  0.285714 -0.190476  0.000000     24.000000
  0.000000  0.095238  0.380952     24.000000
 -0.047619  0.142857  0.428571     48.000000
 -0.095238  0.190476  0.476190     48.000000
 -0.142857  0.238095  0.523810     48.000000
 -0.190476  0.285714  0.571429     48.000000
 -0.238095  0.333333  0.619048     48.000000
  0.714286 -0.619048 -0.333333     48.000000
  0.666667 -0.571429 -0.285714     48.000000
  0.619048 -0.523810 -0.238095     48.000000
  0.571429 -0.476190 -0.190476     48.000000
  0.523810 -0.428571 -0.142857     48.000000
  0.476190 -0.380952 -0.095238     48.000000
  0.428571 -0.333333 -0.047619     48.000000
  0.380952 -0.285714  0.000000     24.000000
  0.000000  0.095238  0.476190     24.000000
 -0.047619  0.142857  0.523810     48.000000
 -0.095238  0.190476  0.571429     48.000000
 -0.142857  0.238095  0.619048     48.000000
 -0.190476  0.285714  0.666667     48.000000
  0.761905 -0.666667 -0.285714     48.000000
  0.714286 -0.619048 -0.238095     48.000000
  0.666667 -0.571429 -0.190476     48.000000
  0.619048 -0.523810 -0.142857     48.000000
  0.571429 -0.476190 -0.095238     48.000000
  0.523810 -0.428571 -0.047619     48.000000
  0.476190 -0.380952  0.000000     24.000000
  0.000000  0.095238  0.571429     24.000000
 -0.047619  0.142857  0.619048     48.000000
 -0.095238  0.190476  0.666667     48.000000
 -0.142857  0.238095  0.714286     48.000000
  0.809524 -0.714286 -0.238095     48.000000
  0.761905 -0.666667 -0.190476     48.000000
  0.714286 -0.619048 -0.142857     48.000000
  0.666667 -0.571429 -0.095238     48.000000
  0.619048 -0.523810 -0.047619     48.000000
  0.571429 -0.476190  0.000000     24.000000
 -0.000000  0.095238  0.666667     24.000000
 -0.047619  0.142857  0.714286     48.000000
 -0.095238  0.190476  0.761905     48.000000
  0.857143 -0.761905 -0.190476     48.000000
  0.809524 -0.714286 -0.142857     48.000000
  0.761905 -0.666667 -0.095238     48.000000
  0.714286 -0.619048 -0.047619     48.000000
  0.666667 -0.571429  0.000000     24.000000
  0.000000  0.095238  0.761905     24.000000
 -0.047619  0.142857  0.809524     48.000000
  0.904762 -0.809524 -0.142857     48.000000
  0.857143 -0.761905 -0.095238     48.000000
  0.809524 -0.714286 -0.047619     48.000000
  0.761905 -0.666667  0.000000     24.000000
  0.000000  0.095238  0.857143     24.000000
  0.952381 -0.857143 -0.095238     48.000000
  0.904762 -0.809524 -0.047619     48.000000
  0.857143 -0.761905  0.000000     24.000000
  1.000000 -0.904762 -0.047619     24.000000
  0.952381 -0.857143  0.000000     24.000000
  0.000000  0.190476  0.380952     24.000000
 -0.047619  0.238095  0.428571     48.000000
 -0.095238  0.285714  0.476190     48.000000
 -0.142857  0.333333  0.523810     48.000000
 -0.190476  0.380952  0.571429     48.000000
  0.761905 -0.571429 -0.380952     48.000000
  0.714286 -0.523810 -0.333333     48.000000
  0.000000  0.190476  0.476190     24.000000
 -0.047619  0.238095  0.523810     48.000000
 -0.095238  0.285714  0.571429     48.000000
 -0.142857  0.333333  0.619048     48.000000
  0.809524 -0.619048 -0.333333     48.000000
  0.761905 -0.571429 -0.285714     48.000000
  0.714286 -0.523810 -0.238095     48.000000
  0.666667 -0.476190 -0.190476     48.000000
  0.619048 -0.428571 -0.142857     48.000000
  0.571429 -0.380952 -0.095238     48.000000
  0.523810 -0.333333 -0.047619     48.000000
  0.476190 -0.285714  0.000000     24.000000
 -0.000000  0.190476  0.571429     24.000000
 -0.047619  0.238095  0.619048     48.000000
 -0.095238  0.285714  0.666667     48.000000
  0.857143 -0.666667 -0.285714     48.000000
  0.809524 -0.619048 -0.238095     48.000000
  0.761905 -0.571429 -0.190476     48.000000
  0.714286 -0.523810 -0.142857     48.000000
  0.666667 -0.476190 -0.095238     48.000000
  0.619048 -0.428571 -0.047619     48.000000
  0.571429 -0.380952  0.000000     24.000000
 -0.000000  0.190476  0.666667     24.000000
 -0.047619  0.238095  0.714286     48.000000
  0.904762 -0.714286 -0.238095     48.000000
  0.857143 -0.666667 -0.190476     48.000000
  0.809524 -0.619048 -0.142857     48.000000
  0.761905 -0.571429 -0.095238     48.000000
  0.714286 -0.523810 -0.047619     48.000000
  0.666667 -0.476190  0.000000     24.000000
  0.000000  0.190476  0.761905     24.000000
  0.952381 -0.761905 -0.190476     48.000000
  0.904762 -0.714286 -0.142857     48.000000
  0.857143 -0.666667 -0.095238     48.000000
  0.809524 -0.619048 -0.047619     48.000000
  0.761905 -0.571429  0.000000     24.000000
  1.000000 -0.809524 -0.142857     24.000000
  0.952381 -0.761905 -0.095238     48.000000
  0.904762 -0.714286 -0.047619     48.000000
  0.857143 -0.666667  0.000000     24.000000
  1.000000 -0.809524 -0.047619     24.000000
  0.952381 -0.761905  0.000000     24.000000
 -0.000000  0.285714  0.571429     24.000000
 -0.047619  0.333333  0.619048     48.000000
  0.904762 -0.619048 -0.333333     48.000000
  0.857143 -0.571429 -0.285714     48.000000
  0.809524 -0.523810 -0.238095     48.000000
 -0.000000  0.285714  0.666667     24.000000
  0.952381 -0.666667 -0.285714     48.000000
  0.904762 -0.619048 -0.238095     48.000000
  0.857143 -0.571429 -0.190476     48.000000
  0.809524 -0.523810 -0.142857     48.000000
  0.761905 -0.476190 -0.095238     48.000000
  0.714286 -0.428571 -0.047619     48.000000
  0.666667 -0.380952 -0.000000     24.000000
  1.000000 -0.714286 -0.238095     24.000000
  0.952381 -0.666667 -0.190476     48.000000
  0.904762 -0.619048 -0.142857     48.000000
  0.857143 -0.571429 -0.095238     48.000000
  0.809524 -0.523810 -0.047619     48.000000
  0.761905 -0.476190  0.000000     24.000000
  1.000000 -0.714286 -0.142857     24.000000
  0.952381 -0.666667 -0.095238     48.000000
  0.904762 -0.619048 -0.047619     48.000000
  0.857143 -0.571429  0.000000     24.000000
  1.000000 -0.714286 -0.047619     24.000000
  0.952381 -0.666667  0.000000     24.000000
  1.000000 -0.619048 -0.238095     24.000000
  0.952381 -0.571429 -0.190476     48.000000
  0.904762 -0.523810 -0.142857     48.000000
  1.000000 -0.619048 -0.142857     24.000000
  0.952381 -0.571429 -0.095238     48.000000
  0.904762 -0.523810 -0.047619     48.000000
  0.857143 -0.476190  0.000000     24.000000
  1.000000 -0.619048 -0.047619     24.000000
  0.952381 -0.571429  0.000000     24.000000
  1.000000 -0.523810 -0.047619     24.000000
 


--------------------------------------------------------------------------------------------------------




 Dimension of arrays:
   k-points           NKPTS =    286   k-points in BZ     NKDIM =    286   number of bands    NBANDS=     50
   number of dos      NEDOS =    301   number of ions     NIONS =      2
   non local maximal  LDIM  =      6   non local SUM 2l+1 LMDIM =     18
   total plane-waves  NPLWV =  13824
   max r-space proj   IRMAX =      1   max aug-charges    IRDMAX=  28133
   dimension x,y,z NGX =    24 NGY =   24 NGZ =   24
   dimension x,y,z NGXF=    48 NGYF=   48 NGZF=   48
   support grid    NGXF=    48 NGYF=   48 NGZF=   48
   ions per type =               1   1
 NGX,Y,Z   is equivalent  to a cutoff of  13.86, 13.86, 13.86 a.u.
 NGXF,Y,Z  is equivalent  to a cutoff of  27.72, 27.72, 27.72 a.u.


 I would recommend the setting:
   dimension x,y,z NGX =    21 NGY =   21 NGZ =   21
 SYSTEM =  unknown system                          
 POSCAR =  VN                                      

 Startparameter for this run:
   NWRITE =      2    write-flag & timer
   PREC   = accura    normal or accurate (medium, high low for compatibility)
   ISTART =      0    job   : 0-new  1-cont  2-samecut
   ICHARG =      2    charge: 1-file 2-atom 10-const
   ISPIN  =      1    spin polarized calculation?
   LNONCOLLINEAR =      F non collinear calculations
   LSORBIT =      F    spin-orbit coupling
   INIWAV =      1    electr: 0-lowe 1-rand  2-diag
   LASPH  =      F    aspherical Exc in radial PAW
   METAGGA=      F    non-selfconsistent MetaGGA calc.

 Electronic Relaxation 1
   ENCUT  =  500.0 eV  36.75 Ry    6.06 a.u.   5.25  5.25  5.25*2*pi/ulx,y,z
   ENINI  =  500.0     initial cutoff
   ENAUG  =  526.6 eV  augmentation charge cutoff
   NELM   =    200;   NELMIN=  2; NELMDL= -5     # of ELM steps 
   EDIFF  = 0.1E-05   stopping-criterion for ELM
   LREAL  =      F    real-space projection
   NLSPLINE    = F    spline interpolate recip. space projectors
   LCOMPAT=      F    compatible to vasp.4.4
   GGA_COMPAT  = T    GGA compatible to vasp.4.4-vasp.4.6
   LMAXPAW     = -100 max onsite density
   LMAXMIX     =    2 max onsite mixed and CHGCAR
   VOSKOWN=      0    Vosko Wilk Nusair interpolation
   ROPT   =    0.00000   0.00000
 Ionic relaxation
   EDIFFG = 0.1E-05   stopping-criterion for IOM
   NSW    =      0    number of steps for IOM
   NBLOCK =      1;   KBLOCK =      1    inner block; outer block 
   IBRION =     -1    ionic relax: 0-MD 1-quasi-New 2-CG
   NFREE  =      0    steps in history (QN), initial steepest desc. (CG)
   ISIF   =      3    stress and relaxation
   IWAVPR =     10    prediction:  0-non 1-charg 2-wave 3-comb
   ISYM   =      2    0-nonsym 1-usesym 2-fastsym
   LCORR  =      T    Harris-Foulkes like correction to forces

   POTIM  = 0.2000    time-step for ionic-motion
   TEIN   =    0.0    initial temperature
   TEBEG  =    0.0;   TEEND  =   0.0 temperature during run
   SMASS  =  -3.00    Nose mass-parameter (am)
   estimated Nose-frequenzy (Omega)   =  0.10E-29 period in steps =****** mass=  -0.189E-27a.u.
   SCALEE = 1.0000    scale energy and forces
   NPACO  =    256;   APACO  = 16.0  distance and # of slots for P.C.
   PSTRESS=    0.0 pullay stress

  Mass of Ions in am
   POMASS =  50.94 14.00
  Ionic Valenz
   ZVAL   =  13.00  5.00
  Atomic Wigner-Seitz radii
   RWIGS  =  -1.00 -1.00
  virtual crystal weights 
   VCA    =   1.00  1.00
   NELECT =      18.0000    total number of electrons
   NUPDOWN=      -1.0000    fix difference up-down

 DOS related values:
   EMIN   =  10.00;   EMAX   =-10.00  energy-range for DOS
   EFERMI =   0.00
   ISMEAR =     0;   SIGMA  =   0.05  broadening in eV -4-tet -1-fermi 0-gaus

 Electronic relaxation 2 (details)
   IALGO  =     48    algorithm
   LDIAG  =      T    sub-space diagonalisation (order eigenvalues)
   LSUBROT=      F    optimize rotation matrix (better conditioning)
   TURBO    =      0    0=normal 1=particle mesh
   IRESTART =      0    0=no restart 2=restart with 2 vectors
   NREBOOT  =      0    no. of reboots
   NMIN     =      0    reboot dimension
   EREF     =   0.00    reference energy to select bands
   IMIX   =      4    mixing-type and parameters
     AMIX     =   0.40;   BMIX     =  1.00
     AMIX_MAG =   1.60;   BMIX_MAG =  1.00
     AMIN     =   0.10
     WC   =   100.;   INIMIX=   1;  MIXPRE=   1;  MAXMIX= -45

 Intra band minimization:
   WEIMIN = 0.0000     energy-eigenvalue tresh-hold
   EBREAK =  0.50E-09  absolut break condition
   DEPER  =   0.30     relativ break condition  

   TIME   =   0.40     timestep for ELM

  volume/ion in A,a.u.               =       8.43        56.92
  Fermi-wavevector in a.u.,A,eV,Ry     =   1.672893  3.161310 38.076883  2.798572
  Thomas-Fermi vector in A             =   2.757960
 
 Write flags
   LWAVE  =      F    write WAVECAR
   LCHARG =      T    write CHGCAR
   LVTOT  =      F    write LOCPOT, total local potential
   LVHAR  =      F    write LOCPOT, Hartree potential only
   LELF   =      F    write electronic localiz. function (ELF)
   LORBIT =      0    0 simple, 1 ext, 2 COOP (PROOUT)


 Dipole corrections
   LMONO  =      F    monopole corrections only (constant potential shift)
   LDIPOL =      F    correct potential (dipole corrections)
   IDIPOL =      0    1-x, 2-y, 3-z, 4-all directions 
   EPSILON=  1.0000000 bulk dielectric constant

 Exchange correlation treatment:
   GGA     =    AM    GGA type
   LEXCH   =    13    internal setting for exchange type
   VOSKOWN=      0    Vosko Wilk Nusair interpolation
   LHFCALC =     F    Hartree Fock is set to
   LHFONE  =     F    Hartree Fock one center treatment
   AEXX    =    0.0000 exact exchange contribution

 Linear response parameters
   LEPSILON=     F    determine dielectric tensor
   LRPA    =     F    only Hartree local field effects (RPA)
   LNABLA  =     F    use nabla operator in PAW spheres
   LVEL    =     F    velocity operator in full k-point grid
   LINTERFAST=   F  fast interpolation
   KINTER  =     0    interpolate to denser k-point grid
   CSHIFT  =0.1000    complex shift for real part using Kramers Kronig
   OMEGAMAX=  -1.0    maximum frequency
   DEG_THRESHOLD= 0.2000000E-02 threshold for treating states as degnerate
   RTIME   =    0.100 relaxation time in fs

 Orbital magnetization related:
   ORBITALMAG=     F  switch on orbital magnetization
   LCHIMAG   =     F  perturbation theory with respect to B field
   DQ        =  0.001000  dq finite difference perturbation B field



--------------------------------------------------------------------------------------------------------


 Static calculation
 charge density and potential will be updated during run
 non-spin polarized calculation
 RMM-DIIS sequential band-by-band
 perform sub-space diagonalisation
    before iterative eigenvector-optimisation
 modified Broyden-mixing scheme, WC =      100.0
 initial mixing is a Kerker type mixing with AMIX =  0.4000 and BMIX =      1.0000
 Hartree-type preconditioning will be used
 using additional bands           41
 reciprocal scheme for non local part
 use partial core corrections
 calculate Harris-corrections to forces 
   (improved forces if not selfconsistent)
 use gradient corrections 
 use of overlap-Matrix (Vanderbilt PP)
 Gauss-broadening in eV      SIGMA  =   0.05


--------------------------------------------------------------------------------------------------------


  energy-cutoff  :      500.00
  volume of cell :       16.87
      direct lattice vectors                 reciprocal lattice vectors
     0.000000000  2.035576500  2.035576500    -0.245630660  0.245630660  0.245630660
     2.035576500  0.000000000  2.035576500     0.245630660 -0.245630660  0.245630660
     2.035576500  2.035576500  0.000000000     0.245630660  0.245630660 -0.245630660

  length of vectors
     2.878739894  2.878739894  2.878739894     0.425444784  0.425444784  0.425444784


 
 k-points in units of 2pi/SCALE and weight: Automatic mesh                          
   0.00000000  0.00000000  0.00000000       0.000
  -0.04761905  0.04761905  0.04761905       0.001
  -0.09523810  0.09523810  0.09523810       0.001
  -0.14285714  0.14285714  0.14285714       0.001
  -0.19047619  0.19047619  0.19047619       0.001
  -0.23809524  0.23809524  0.23809524       0.001
  -0.28571429  0.28571429  0.28571429       0.001
  -0.33333333  0.33333333  0.33333333       0.001
  -0.38095238  0.38095238  0.38095238       0.001
  -0.42857143  0.42857143  0.42857143       0.001
  -0.47619048  0.47619048  0.47619048       0.001
   0.00000000  0.00000000  0.09523810       0.001
  -0.04761905  0.04761905  0.14285714       0.003
  -0.09523810  0.09523810  0.19047619       0.003
  -0.14285714  0.14285714  0.23809524       0.003
  -0.19047619  0.19047619  0.28571429       0.003
  -0.23809524  0.23809524  0.33333333       0.003
  -0.28571429  0.28571429  0.38095238       0.003
  -0.33333333  0.33333333  0.42857143       0.003
  -0.38095238  0.38095238  0.47619048       0.003
  -0.42857143  0.42857143  0.52380952       0.003
   0.52380952 -0.52380952 -0.42857143       0.003
   0.47619048 -0.47619048 -0.38095238       0.003
   0.42857143 -0.42857143 -0.33333333       0.003
   0.38095238 -0.38095238 -0.28571429       0.003
   0.33333333 -0.33333333 -0.23809524       0.003
   0.28571429 -0.28571429 -0.19047619       0.003
   0.23809524 -0.23809524 -0.14285714       0.003
   0.19047619 -0.19047619 -0.09523810       0.003
   0.14285714 -0.14285714 -0.04761905       0.003
   0.09523810 -0.09523810  0.00000000       0.001
   0.00000000  0.00000000  0.19047619       0.001
  -0.04761905  0.04761905  0.23809524       0.003
  -0.09523810  0.09523810  0.28571429       0.003
  -0.14285714  0.14285714  0.33333333       0.003
  -0.19047619  0.19047619  0.38095238       0.003
  -0.23809524  0.23809524  0.42857143       0.003
  -0.28571429  0.28571429  0.47619048       0.003
  -0.33333333  0.33333333  0.52380952       0.003
  -0.38095238  0.38095238  0.57142857       0.003
   0.57142857 -0.57142857 -0.38095238       0.003
   0.52380952 -0.52380952 -0.33333333       0.003
   0.47619048 -0.47619048 -0.28571429       0.003
   0.42857143 -0.42857143 -0.23809524       0.003
   0.38095238 -0.38095238 -0.19047619       0.003
   0.33333333 -0.33333333 -0.14285714       0.003
   0.28571429 -0.28571429 -0.09523810       0.003
   0.23809524 -0.23809524 -0.04761905       0.003
   0.19047619 -0.19047619  0.00000000       0.001
   0.00000000  0.00000000  0.28571429       0.001
  -0.04761905  0.04761905  0.33333333       0.003
  -0.09523810  0.09523810  0.38095238       0.003
  -0.14285714  0.14285714  0.42857143       0.003
  -0.19047619  0.19047619  0.47619048       0.003
  -0.23809524  0.23809524  0.52380952       0.003
  -0.28571429  0.28571429  0.57142857       0.003
  -0.33333333  0.33333333  0.61904762       0.003
   0.61904762 -0.61904762 -0.33333333       0.003
   0.57142857 -0.57142857 -0.28571429       0.003
   0.52380952 -0.52380952 -0.23809524       0.003
   0.47619048 -0.47619048 -0.19047619       0.003
   0.42857143 -0.42857143 -0.14285714       0.003
   0.38095238 -0.38095238 -0.09523810       0.003
   0.33333333 -0.33333333 -0.04761905       0.003
   0.28571429 -0.28571429  0.00000000       0.001
   0.00000000  0.00000000  0.38095238       0.001
  -0.04761905  0.04761905  0.42857143       0.003
  -0.09523810  0.09523810  0.47619048       0.003
  -0.14285714  0.14285714  0.52380952       0.003
  -0.19047619  0.19047619  0.57142857       0.003
  -0.23809524  0.23809524  0.61904762       0.003
  -0.28571429  0.28571429  0.66666667       0.003
   0.66666667 -0.66666667 -0.28571429       0.003
   0.61904762 -0.61904762 -0.23809524       0.003
   0.57142857 -0.57142857 -0.19047619       0.003
   0.52380952 -0.52380952 -0.14285714       0.003
   0.47619048 -0.47619048 -0.09523810       0.003
   0.42857143 -0.42857143 -0.04761905       0.003
   0.38095238 -0.38095238  0.00000000       0.001
   0.00000000  0.00000000  0.47619048       0.001
  -0.04761905  0.04761905  0.52380952       0.003
  -0.09523810  0.09523810  0.57142857       0.003
  -0.14285714  0.14285714  0.61904762       0.003
  -0.19047619  0.19047619  0.66666667       0.003
  -0.23809524  0.23809524  0.71428571       0.003
   0.71428571 -0.71428571 -0.23809524       0.003
   0.66666667 -0.66666667 -0.19047619       0.003
   0.61904762 -0.61904762 -0.14285714       0.003
   0.57142857 -0.57142857 -0.09523810       0.003
   0.52380952 -0.52380952 -0.04761905       0.003
   0.47619048 -0.47619048  0.00000000       0.001
   0.00000000  0.00000000  0.57142857       0.001
  -0.04761905  0.04761905  0.61904762       0.003
  -0.09523810  0.09523810  0.66666667       0.003
  -0.14285714  0.14285714  0.71428571       0.003
  -0.19047619  0.19047619  0.76190476       0.003
   0.76190476 -0.76190476 -0.19047619       0.003
   0.71428571 -0.71428571 -0.14285714       0.003
   0.66666667 -0.66666667 -0.09523810       0.003
   0.61904762 -0.61904762 -0.04761905       0.003
   0.57142857 -0.57142857  0.00000000       0.001
   0.00000000  0.00000000  0.66666667       0.001
  -0.04761905  0.04761905  0.71428571       0.003
  -0.09523810  0.09523810  0.76190476       0.003
  -0.14285714  0.14285714  0.80952381       0.003
   0.80952381 -0.80952381 -0.14285714       0.003
   0.76190476 -0.76190476 -0.09523810       0.003
   0.71428571 -0.71428571 -0.04761905       0.003
   0.66666667 -0.66666667  0.00000000       0.001
   0.00000000  0.00000000  0.76190476       0.001
  -0.04761905  0.04761905  0.80952381       0.003
  -0.09523810  0.09523810  0.85714286       0.003
   0.85714286 -0.85714286 -0.09523810       0.003
   0.80952381 -0.80952381 -0.04761905       0.003
   0.76190476 -0.76190476  0.00000000       0.001
   0.00000000  0.00000000  0.85714286       0.001
  -0.04761905  0.04761905  0.90476190       0.003
   0.90476190 -0.90476190 -0.04761905       0.003
   0.85714286 -0.85714286  0.00000000       0.001
   0.00000000  0.00000000  0.95238095       0.001
   0.95238095 -0.95238095  0.00000000       0.001
  -0.00000000  0.09523810  0.19047619       0.003
  -0.04761905  0.14285714  0.23809524       0.005
  -0.09523810  0.19047619  0.28571429       0.005
  -0.14285714  0.23809524  0.33333333       0.005
  -0.19047619  0.28571429  0.38095238       0.005
  -0.23809524  0.33333333  0.42857143       0.005
  -0.28571429  0.38095238  0.47619048       0.005
  -0.33333333  0.42857143  0.52380952       0.005
   0.61904762 -0.52380952 -0.42857143       0.005
   0.00000000  0.09523810  0.28571429       0.003
  -0.04761905  0.14285714  0.33333333       0.005
  -0.09523810  0.19047619  0.38095238       0.005
  -0.14285714  0.23809524  0.42857143       0.005
  -0.19047619  0.28571429  0.47619048       0.005
  -0.23809524  0.33333333  0.52380952       0.005
  -0.28571429  0.38095238  0.57142857       0.005
   0.66666667 -0.57142857 -0.38095238       0.005
   0.61904762 -0.52380952 -0.33333333       0.005
   0.57142857 -0.47619048 -0.28571429       0.005
   0.52380952 -0.42857143 -0.23809524       0.005
   0.47619048 -0.38095238 -0.19047619       0.005
   0.42857143 -0.33333333 -0.14285714       0.005
   0.38095238 -0.28571429 -0.09523810       0.005
   0.33333333 -0.23809524 -0.04761905       0.005
   0.28571429 -0.19047619  0.00000000       0.003
   0.00000000  0.09523810  0.38095238       0.003
  -0.04761905  0.14285714  0.42857143       0.005
  -0.09523810  0.19047619  0.47619048       0.005
  -0.14285714  0.23809524  0.52380952       0.005
  -0.19047619  0.28571429  0.57142857       0.005
  -0.23809524  0.33333333  0.61904762       0.005
   0.71428571 -0.61904762 -0.33333333       0.005
   0.66666667 -0.57142857 -0.28571429       0.005
   0.61904762 -0.52380952 -0.23809524       0.005
   0.57142857 -0.47619048 -0.19047619       0.005
   0.52380952 -0.42857143 -0.14285714       0.005
   0.47619048 -0.38095238 -0.09523810       0.005
   0.42857143 -0.33333333 -0.04761905       0.005
   0.38095238 -0.28571429  0.00000000       0.003
   0.00000000  0.09523810  0.47619048       0.003
  -0.04761905  0.14285714  0.52380952       0.005
  -0.09523810  0.19047619  0.57142857       0.005
  -0.14285714  0.23809524  0.61904762       0.005
  -0.19047619  0.28571429  0.66666667       0.005
   0.76190476 -0.66666667 -0.28571429       0.005
   0.71428571 -0.61904762 -0.23809524       0.005
   0.66666667 -0.57142857 -0.19047619       0.005
   0.61904762 -0.52380952 -0.14285714       0.005
   0.57142857 -0.47619048 -0.09523810       0.005
   0.52380952 -0.42857143 -0.04761905       0.005
   0.47619048 -0.38095238  0.00000000       0.003
   0.00000000  0.09523810  0.57142857       0.003
  -0.04761905  0.14285714  0.61904762       0.005
  -0.09523810  0.19047619  0.66666667       0.005
  -0.14285714  0.23809524  0.71428571       0.005
   0.80952381 -0.71428571 -0.23809524       0.005
   0.76190476 -0.66666667 -0.19047619       0.005
   0.71428571 -0.61904762 -0.14285714       0.005
   0.66666667 -0.57142857 -0.09523810       0.005
   0.61904762 -0.52380952 -0.04761905       0.005
   0.57142857 -0.47619048  0.00000000       0.003
  -0.00000000  0.09523810  0.66666667       0.003
  -0.04761905  0.14285714  0.71428571       0.005
  -0.09523810  0.19047619  0.76190476       0.005
   0.85714286 -0.76190476 -0.19047619       0.005
   0.80952381 -0.71428571 -0.14285714       0.005
   0.76190476 -0.66666667 -0.09523810       0.005
   0.71428571 -0.61904762 -0.04761905       0.005
   0.66666667 -0.57142857  0.00000000       0.003
   0.00000000  0.09523810  0.76190476       0.003
  -0.04761905  0.14285714  0.80952381       0.005
   0.90476190 -0.80952381 -0.14285714       0.005
   0.85714286 -0.76190476 -0.09523810       0.005
   0.80952381 -0.71428571 -0.04761905       0.005
   0.76190476 -0.66666667  0.00000000       0.003
   0.00000000  0.09523810  0.85714286       0.003
   0.95238095 -0.85714286 -0.09523810       0.005
   0.90476190 -0.80952381 -0.04761905       0.005
   0.85714286 -0.76190476  0.00000000       0.003
   1.00000000 -0.90476190 -0.04761905       0.003
   0.95238095 -0.85714286  0.00000000       0.003
   0.00000000  0.19047619  0.38095238       0.003
  -0.04761905  0.23809524  0.42857143       0.005
  -0.09523810  0.28571429  0.47619048       0.005
  -0.14285714  0.33333333  0.52380952       0.005
  -0.19047619  0.38095238  0.57142857       0.005
   0.76190476 -0.57142857 -0.38095238       0.005
   0.71428571 -0.52380952 -0.33333333       0.005
   0.00000000  0.19047619  0.47619048       0.003
  -0.04761905  0.23809524  0.52380952       0.005
  -0.09523810  0.28571429  0.57142857       0.005
  -0.14285714  0.33333333  0.61904762       0.005
   0.80952381 -0.61904762 -0.33333333       0.005
   0.76190476 -0.57142857 -0.28571429       0.005
   0.71428571 -0.52380952 -0.23809524       0.005
   0.66666667 -0.47619048 -0.19047619       0.005
   0.61904762 -0.42857143 -0.14285714       0.005
   0.57142857 -0.38095238 -0.09523810       0.005
   0.52380952 -0.33333333 -0.04761905       0.005
   0.47619048 -0.28571429  0.00000000       0.003
  -0.00000000  0.19047619  0.57142857       0.003
  -0.04761905  0.23809524  0.61904762       0.005
  -0.09523810  0.28571429  0.66666667       0.005
   0.85714286 -0.66666667 -0.28571429       0.005
   0.80952381 -0.61904762 -0.23809524       0.005
   0.76190476 -0.57142857 -0.19047619       0.005
   0.71428571 -0.52380952 -0.14285714       0.005
   0.66666667 -0.47619048 -0.09523810       0.005
   0.61904762 -0.42857143 -0.04761905       0.005
   0.57142857 -0.38095238  0.00000000       0.003
  -0.00000000  0.19047619  0.66666667       0.003
  -0.04761905  0.23809524  0.71428571       0.005
   0.90476190 -0.71428571 -0.23809524       0.005
   0.85714286 -0.66666667 -0.19047619       0.005
   0.80952381 -0.61904762 -0.14285714       0.005
   0.76190476 -0.57142857 -0.09523810       0.005
   0.71428571 -0.52380952 -0.04761905       0.005
   0.66666667 -0.47619048  0.00000000       0.003
   0.00000000  0.19047619  0.76190476       0.003
   0.95238095 -0.76190476 -0.19047619       0.005
   0.90476190 -0.71428571 -0.14285714       0.005
   0.85714286 -0.66666667 -0.09523810       0.005
   0.80952381 -0.61904762 -0.04761905       0.005
   0.76190476 -0.57142857  0.00000000       0.003
   1.00000000 -0.80952381 -0.14285714       0.003
   0.95238095 -0.76190476 -0.09523810       0.005
   0.90476190 -0.71428571 -0.04761905       0.005
   0.85714286 -0.66666667  0.00000000       0.003
   1.00000000 -0.80952381 -0.04761905       0.003
   0.95238095 -0.76190476  0.00000000       0.003
  -0.00000000  0.28571429  0.57142857       0.003
  -0.04761905  0.33333333  0.61904762       0.005
   0.90476190 -0.61904762 -0.33333333       0.005
   0.85714286 -0.57142857 -0.28571429       0.005
   0.80952381 -0.52380952 -0.23809524       0.005
  -0.00000000  0.28571429  0.66666667       0.003
   0.95238095 -0.66666667 -0.28571429       0.005
   0.90476190 -0.61904762 -0.23809524       0.005
   0.85714286 -0.57142857 -0.19047619       0.005
   0.80952381 -0.52380952 -0.14285714       0.005
   0.76190476 -0.47619048 -0.09523810       0.005
   0.71428571 -0.42857143 -0.04761905       0.005
   0.66666667 -0.38095238 -0.00000000       0.003
   1.00000000 -0.71428571 -0.23809524       0.003
   0.95238095 -0.66666667 -0.19047619       0.005
   0.90476190 -0.61904762 -0.14285714       0.005
   0.85714286 -0.57142857 -0.09523810       0.005
   0.80952381 -0.52380952 -0.04761905       0.005
   0.76190476 -0.47619048  0.00000000       0.003
   1.00000000 -0.71428571 -0.14285714       0.003
   0.95238095 -0.66666667 -0.09523810       0.005
   0.90476190 -0.61904762 -0.04761905       0.005
   0.85714286 -0.57142857  0.00000000       0.003
   1.00000000 -0.71428571 -0.04761905       0.003
   0.95238095 -0.66666667  0.00000000       0.003
   1.00000000 -0.61904762 -0.23809524       0.003
   0.95238095 -0.57142857 -0.19047619       0.005
   0.90476190 -0.52380952 -0.14285714       0.005
   1.00000000 -0.61904762 -0.14285714       0.003
   0.95238095 -0.57142857 -0.09523810       0.005
   0.90476190 -0.52380952 -0.04761905       0.005
   0.85714286 -0.47619048  0.00000000       0.003
   1.00000000 -0.61904762 -0.04761905       0.003
   0.95238095 -0.57142857  0.00000000       0.003
   1.00000000 -0.52380952 -0.04761905       0.003
 
 k-points in reciprocal lattice and weights: Automatic mesh                          
   0.00000000  0.00000000  0.00000000       0.000
   0.04761905  0.00000000  0.00000000       0.001
   0.09523810  0.00000000  0.00000000       0.001
   0.14285714  0.00000000  0.00000000       0.001
   0.19047619  0.00000000  0.00000000       0.001
   0.23809524  0.00000000  0.00000000       0.001
   0.28571429  0.00000000  0.00000000       0.001
   0.33333333  0.00000000  0.00000000       0.001
   0.38095238  0.00000000  0.00000000       0.001
   0.42857143  0.00000000  0.00000000       0.001
   0.47619048  0.00000000  0.00000000       0.001
   0.04761905  0.04761905  0.00000000       0.001
   0.09523810  0.04761905  0.00000000       0.003
   0.14285714  0.04761905  0.00000000       0.003
   0.19047619  0.04761905  0.00000000       0.003
   0.23809524  0.04761905  0.00000000       0.003
   0.28571429  0.04761905  0.00000000       0.003
   0.33333333  0.04761905  0.00000000       0.003
   0.38095238  0.04761905  0.00000000       0.003
   0.42857143  0.04761905  0.00000000       0.003
   0.47619048  0.04761905  0.00000000       0.003
  -0.47619048  0.04761905  0.00000000       0.003
  -0.42857143  0.04761905  0.00000000       0.003
  -0.38095238  0.04761905  0.00000000       0.003
  -0.33333333  0.04761905  0.00000000       0.003
  -0.28571429  0.04761905  0.00000000       0.003
  -0.23809524  0.04761905  0.00000000       0.003
  -0.19047619  0.04761905  0.00000000       0.003
  -0.14285714  0.04761905  0.00000000       0.003
  -0.09523810  0.04761905  0.00000000       0.003
  -0.04761905  0.04761905  0.00000000       0.001
   0.09523810  0.09523810  0.00000000       0.001
   0.14285714  0.09523810  0.00000000       0.003
   0.19047619  0.09523810  0.00000000       0.003
   0.23809524  0.09523810  0.00000000       0.003
   0.28571429  0.09523810  0.00000000       0.003
   0.33333333  0.09523810  0.00000000       0.003
   0.38095238  0.09523810  0.00000000       0.003
   0.42857143  0.09523810  0.00000000       0.003
   0.47619048  0.09523810  0.00000000       0.003
  -0.47619048  0.09523810  0.00000000       0.003
  -0.42857143  0.09523810  0.00000000       0.003
  -0.38095238  0.09523810  0.00000000       0.003
  -0.33333333  0.09523810  0.00000000       0.003
  -0.28571429  0.09523810  0.00000000       0.003
  -0.23809524  0.09523810  0.00000000       0.003
  -0.19047619  0.09523810  0.00000000       0.003
  -0.14285714  0.09523810  0.00000000       0.003
  -0.09523810  0.09523810  0.00000000       0.001
   0.14285714  0.14285714  0.00000000       0.001
   0.19047619  0.14285714  0.00000000       0.003
   0.23809524  0.14285714  0.00000000       0.003
   0.28571429  0.14285714  0.00000000       0.003
   0.33333333  0.14285714  0.00000000       0.003
   0.38095238  0.14285714  0.00000000       0.003
   0.42857143  0.14285714  0.00000000       0.003
   0.47619048  0.14285714  0.00000000       0.003
  -0.47619048  0.14285714  0.00000000       0.003
  -0.42857143  0.14285714  0.00000000       0.003
  -0.38095238  0.14285714  0.00000000       0.003
  -0.33333333  0.14285714  0.00000000       0.003
  -0.28571429  0.14285714  0.00000000       0.003
  -0.23809524  0.14285714  0.00000000       0.003
  -0.19047619  0.14285714  0.00000000       0.003
  -0.14285714  0.14285714  0.00000000       0.001
   0.19047619  0.19047619  0.00000000       0.001
   0.23809524  0.19047619  0.00000000       0.003
   0.28571429  0.19047619  0.00000000       0.003
   0.33333333  0.19047619  0.00000000       0.003
   0.38095238  0.19047619  0.00000000       0.003
   0.42857143  0.19047619  0.00000000       0.003
   0.47619048  0.19047619  0.00000000       0.003
  -0.47619048  0.19047619  0.00000000       0.003
  -0.42857143  0.19047619  0.00000000       0.003
  -0.38095238  0.19047619  0.00000000       0.003
  -0.33333333  0.19047619  0.00000000       0.003
  -0.28571429  0.19047619  0.00000000       0.003
  -0.23809524  0.19047619  0.00000000       0.003
  -0.19047619  0.19047619  0.00000000       0.001
   0.23809524  0.23809524  0.00000000       0.001
   0.28571429  0.23809524  0.00000000       0.003
   0.33333333  0.23809524  0.00000000       0.003
   0.38095238  0.23809524  0.00000000       0.003
   0.42857143  0.23809524  0.00000000       0.003
   0.47619048  0.23809524  0.00000000       0.003
  -0.47619048  0.23809524  0.00000000       0.003
  -0.42857143  0.23809524  0.00000000       0.003
  -0.38095238  0.23809524  0.00000000       0.003
  -0.33333333  0.23809524  0.00000000       0.003
  -0.28571429  0.23809524  0.00000000       0.003
  -0.23809524  0.23809524  0.00000000       0.001
   0.28571429  0.28571429  0.00000000       0.001
   0.33333333  0.28571429  0.00000000       0.003
   0.38095238  0.28571429  0.00000000       0.003
   0.42857143  0.28571429  0.00000000       0.003
   0.47619048  0.28571429  0.00000000       0.003
  -0.47619048  0.28571429  0.00000000       0.003
  -0.42857143  0.28571429  0.00000000       0.003
  -0.38095238  0.28571429  0.00000000       0.003
  -0.33333333  0.28571429  0.00000000       0.003
  -0.28571429  0.28571429  0.00000000       0.001
   0.33333333  0.33333333  0.00000000       0.001
   0.38095238  0.33333333  0.00000000       0.003
   0.42857143  0.33333333  0.00000000       0.003
   0.47619048  0.33333333  0.00000000       0.003
  -0.47619048  0.33333333  0.00000000       0.003
  -0.42857143  0.33333333  0.00000000       0.003
  -0.38095238  0.33333333  0.00000000       0.003
  -0.33333333  0.33333333  0.00000000       0.001
   0.38095238  0.38095238  0.00000000       0.001
   0.42857143  0.38095238  0.00000000       0.003
   0.47619048  0.38095238  0.00000000       0.003
  -0.47619048  0.38095238  0.00000000       0.003
  -0.42857143  0.38095238  0.00000000       0.003
  -0.38095238  0.38095238  0.00000000       0.001
   0.42857143  0.42857143  0.00000000       0.001
   0.47619048  0.42857143  0.00000000       0.003
  -0.47619048  0.42857143  0.00000000       0.003
  -0.42857143  0.42857143  0.00000000       0.001
   0.47619048  0.47619048  0.00000000       0.001
  -0.47619048  0.47619048  0.00000000       0.001
   0.14285714  0.09523810  0.04761905       0.003
   0.19047619  0.09523810  0.04761905       0.005
   0.23809524  0.09523810  0.04761905       0.005
   0.28571429  0.09523810  0.04761905       0.005
   0.33333333  0.09523810  0.04761905       0.005
   0.38095238  0.09523810  0.04761905       0.005
   0.42857143  0.09523810  0.04761905       0.005
   0.47619048  0.09523810  0.04761905       0.005
  -0.47619048  0.09523810  0.04761905       0.005
   0.19047619  0.14285714  0.04761905       0.003
   0.23809524  0.14285714  0.04761905       0.005
   0.28571429  0.14285714  0.04761905       0.005
   0.33333333  0.14285714  0.04761905       0.005
   0.38095238  0.14285714  0.04761905       0.005
   0.42857143  0.14285714  0.04761905       0.005
   0.47619048  0.14285714  0.04761905       0.005
  -0.47619048  0.14285714  0.04761905       0.005
  -0.42857143  0.14285714  0.04761905       0.005
  -0.38095238  0.14285714  0.04761905       0.005
  -0.33333333  0.14285714  0.04761905       0.005
  -0.28571429  0.14285714  0.04761905       0.005
  -0.23809524  0.14285714  0.04761905       0.005
  -0.19047619  0.14285714  0.04761905       0.005
  -0.14285714  0.14285714  0.04761905       0.005
  -0.09523810  0.14285714  0.04761905       0.003
   0.23809524  0.19047619  0.04761905       0.003
   0.28571429  0.19047619  0.04761905       0.005
   0.33333333  0.19047619  0.04761905       0.005
   0.38095238  0.19047619  0.04761905       0.005
   0.42857143  0.19047619  0.04761905       0.005
   0.47619048  0.19047619  0.04761905       0.005
  -0.47619048  0.19047619  0.04761905       0.005
  -0.42857143  0.19047619  0.04761905       0.005
  -0.38095238  0.19047619  0.04761905       0.005
  -0.33333333  0.19047619  0.04761905       0.005
  -0.28571429  0.19047619  0.04761905       0.005
  -0.23809524  0.19047619  0.04761905       0.005
  -0.19047619  0.19047619  0.04761905       0.005
  -0.14285714  0.19047619  0.04761905       0.003
   0.28571429  0.23809524  0.04761905       0.003
   0.33333333  0.23809524  0.04761905       0.005
   0.38095238  0.23809524  0.04761905       0.005
   0.42857143  0.23809524  0.04761905       0.005
   0.47619048  0.23809524  0.04761905       0.005
  -0.47619048  0.23809524  0.04761905       0.005
  -0.42857143  0.23809524  0.04761905       0.005
  -0.38095238  0.23809524  0.04761905       0.005
  -0.33333333  0.23809524  0.04761905       0.005
  -0.28571429  0.23809524  0.04761905       0.005
  -0.23809524  0.23809524  0.04761905       0.005
  -0.19047619  0.23809524  0.04761905       0.003
   0.33333333  0.28571429  0.04761905       0.003
   0.38095238  0.28571429  0.04761905       0.005
   0.42857143  0.28571429  0.04761905       0.005
   0.47619048  0.28571429  0.04761905       0.005
  -0.47619048  0.28571429  0.04761905       0.005
  -0.42857143  0.28571429  0.04761905       0.005
  -0.38095238  0.28571429  0.04761905       0.005
  -0.33333333  0.28571429  0.04761905       0.005
  -0.28571429  0.28571429  0.04761905       0.005
  -0.23809524  0.28571429  0.04761905       0.003
   0.38095238  0.33333333  0.04761905       0.003
   0.42857143  0.33333333  0.04761905       0.005
   0.47619048  0.33333333  0.04761905       0.005
  -0.47619048  0.33333333  0.04761905       0.005
  -0.42857143  0.33333333  0.04761905       0.005
  -0.38095238  0.33333333  0.04761905       0.005
  -0.33333333  0.33333333  0.04761905       0.005
  -0.28571429  0.33333333  0.04761905       0.003
   0.42857143  0.38095238  0.04761905       0.003
   0.47619048  0.38095238  0.04761905       0.005
  -0.47619048  0.38095238  0.04761905       0.005
  -0.42857143  0.38095238  0.04761905       0.005
  -0.38095238  0.38095238  0.04761905       0.005
  -0.33333333  0.38095238  0.04761905       0.003
   0.47619048  0.42857143  0.04761905       0.003
  -0.47619048  0.42857143  0.04761905       0.005
  -0.42857143  0.42857143  0.04761905       0.005
  -0.38095238  0.42857143  0.04761905       0.003
  -0.47619048  0.47619048  0.04761905       0.003
  -0.42857143  0.47619048  0.04761905       0.003
   0.28571429  0.19047619  0.09523810       0.003
   0.33333333  0.19047619  0.09523810       0.005
   0.38095238  0.19047619  0.09523810       0.005
   0.42857143  0.19047619  0.09523810       0.005
   0.47619048  0.19047619  0.09523810       0.005
  -0.47619048  0.19047619  0.09523810       0.005
  -0.42857143  0.19047619  0.09523810       0.005
   0.33333333  0.23809524  0.09523810       0.003
   0.38095238  0.23809524  0.09523810       0.005
   0.42857143  0.23809524  0.09523810       0.005
   0.47619048  0.23809524  0.09523810       0.005
  -0.47619048  0.23809524  0.09523810       0.005
  -0.42857143  0.23809524  0.09523810       0.005
  -0.38095238  0.23809524  0.09523810       0.005
  -0.33333333  0.23809524  0.09523810       0.005
  -0.28571429  0.23809524  0.09523810       0.005
  -0.23809524  0.23809524  0.09523810       0.005
  -0.19047619  0.23809524  0.09523810       0.005
  -0.14285714  0.23809524  0.09523810       0.003
   0.38095238  0.28571429  0.09523810       0.003
   0.42857143  0.28571429  0.09523810       0.005
   0.47619048  0.28571429  0.09523810       0.005
  -0.47619048  0.28571429  0.09523810       0.005
  -0.42857143  0.28571429  0.09523810       0.005
  -0.38095238  0.28571429  0.09523810       0.005
  -0.33333333  0.28571429  0.09523810       0.005
  -0.28571429  0.28571429  0.09523810       0.005
  -0.23809524  0.28571429  0.09523810       0.005
  -0.19047619  0.28571429  0.09523810       0.003
   0.42857143  0.33333333  0.09523810       0.003
   0.47619048  0.33333333  0.09523810       0.005
  -0.47619048  0.33333333  0.09523810       0.005
  -0.42857143  0.33333333  0.09523810       0.005
  -0.38095238  0.33333333  0.09523810       0.005
  -0.33333333  0.33333333  0.09523810       0.005
  -0.28571429  0.33333333  0.09523810       0.005
  -0.23809524  0.33333333  0.09523810       0.003
   0.47619048  0.38095238  0.09523810       0.003
  -0.47619048  0.38095238  0.09523810       0.005
  -0.42857143  0.38095238  0.09523810       0.005
  -0.38095238  0.38095238  0.09523810       0.005
  -0.33333333  0.38095238  0.09523810       0.005
  -0.28571429  0.38095238  0.09523810       0.003
  -0.47619048  0.42857143  0.09523810       0.003
  -0.42857143  0.42857143  0.09523810       0.005
  -0.38095238  0.42857143  0.09523810       0.005
  -0.33333333  0.42857143  0.09523810       0.003
  -0.42857143  0.47619048  0.09523810       0.003
  -0.38095238  0.47619048  0.09523810       0.003
   0.42857143  0.28571429  0.14285714       0.003
   0.47619048  0.28571429  0.14285714       0.005
  -0.47619048  0.28571429  0.14285714       0.005
  -0.42857143  0.28571429  0.14285714       0.005
  -0.38095238  0.28571429  0.14285714       0.005
   0.47619048  0.33333333  0.14285714       0.003
  -0.47619048  0.33333333  0.14285714       0.005
  -0.42857143  0.33333333  0.14285714       0.005
  -0.38095238  0.33333333  0.14285714       0.005
  -0.33333333  0.33333333  0.14285714       0.005
  -0.28571429  0.33333333  0.14285714       0.005
  -0.23809524  0.33333333  0.14285714       0.005
  -0.19047619  0.33333333  0.14285714       0.003
  -0.47619048  0.38095238  0.14285714       0.003
  -0.42857143  0.38095238  0.14285714       0.005
  -0.38095238  0.38095238  0.14285714       0.005
  -0.33333333  0.38095238  0.14285714       0.005
  -0.28571429  0.38095238  0.14285714       0.005
  -0.23809524  0.38095238  0.14285714       0.003
  -0.42857143  0.42857143  0.14285714       0.003
  -0.38095238  0.42857143  0.14285714       0.005
  -0.33333333  0.42857143  0.14285714       0.005
  -0.28571429  0.42857143  0.14285714       0.003
  -0.38095238  0.47619048  0.14285714       0.003
  -0.33333333  0.47619048  0.14285714       0.003
  -0.42857143  0.38095238  0.19047619       0.003
  -0.38095238  0.38095238  0.19047619       0.005
  -0.33333333  0.38095238  0.19047619       0.005
  -0.38095238  0.42857143  0.19047619       0.003
  -0.33333333  0.42857143  0.19047619       0.005
  -0.28571429  0.42857143  0.19047619       0.005
  -0.23809524  0.42857143  0.19047619       0.003
  -0.33333333  0.47619048  0.19047619       0.003
  -0.28571429  0.47619048  0.19047619       0.003
  -0.28571429  0.47619048  0.23809524       0.003
 
 position of ions in fractional coordinates (direct lattice) 
   0.00000000  0.00000000  0.00000000
   0.50000000  0.50000000  0.50000000
 
 position of ions in cartesian coordinates  (Angst):
   0.00000000  0.00000000  0.00000000
   2.03557650  2.03557650  2.03557650
 


--------------------------------------------------------------------------------------------------------


[...]
  band No.  band energies     occupation 
      1     -52.1114      2.00000
      2     -26.4129      2.00000
      3     -26.3318      2.00000
      4     -26.2121      2.00000
      5      -2.9776      2.00000
      6       5.9533      2.00000
      7       6.5200      2.00000
      8       6.9071      2.00000
      9      12.4753      2.00000
     10      13.3561      0.00000
     11      14.1607      0.00000
     12      15.2000      0.00000
     13      16.0176      0.00000
     14      24.8109      0.00000
     15      25.4347      0.00000
     16      26.3191      0.00000
     17      30.6128      0.00000
     18      35.0292      0.00000
     19      36.3697      0.00000
     20      42.9537      0.00000
     21      45.9888      0.00000
     22      46.5223      0.00000
     23      48.4457      0.00000
     24      49.6758      0.00000
     25      54.0333      0.00000
     26      54.7874      0.00000
     27      56.3838      0.00000
     28      56.9960      0.00000
     29      57.4999      0.00000
     30      57.9022      0.00000
     31      61.1631      0.00000
     32      63.4330      0.00000
     33      64.9827      0.00000
     34      66.8961      0.00000
     35      70.6117      0.00000
     36      73.9176      0.00000
     37      76.6616      0.00000
     38      80.2447      0.00000
     39      83.1768      0.00000
     40      84.1327      0.00000
     41      84.2804      0.00000
     42      86.8170      0.00000
     43      89.6189      0.00000
     44      91.1471      0.00000
     45      93.0613      0.00000
     46      94.5803      0.00000
     47      96.3614      0.00000
     48     100.5160      0.00000
     49     102.1968      0.00000
     50     103.0790      0.00000

 k-point   282 :      -0.2857    0.4286    0.1905
  band No.  band energies     occupation 
      1     -52.1111      2.00000
      2     -26.3909      2.00000
      3     -26.3584      2.00000
      4     -26.2103      2.00000
      5      -2.9472      2.00000
      6       6.0036      2.00000
      7       6.3641      2.00000
      8       6.8741      2.00000
      9      12.8071      1.22786
     10      13.0974      0.00000
     11      14.1612      0.00000
     12      15.3130      0.00000
     13      15.9812      0.00000
     14      24.8624      0.00000
     15      25.2876      0.00000
     16      26.4978      0.00000
     17      30.4606      0.00000
     18      35.4836      0.00000
     19      35.8282      0.00000
     20      42.9193      0.00000
     21      46.0801      0.00000
     22      46.3202      0.00000
     23      48.6005      0.00000
     24      49.9252      0.00000
     25      53.7407      0.00000
     26      55.3566      0.00000
     27      56.1091      0.00000
     28      57.0893      0.00000
     29      57.5761      0.00000
     30      57.7140      0.00000
     31      62.1576      0.00000
     32      63.1034      0.00000
     33      64.6394      0.00000
     34      65.8652      0.00000
     35      70.6612      0.00000
     36      74.6848      0.00000
     37      76.3684      0.00000
     38      79.6903      0.00000
     39      83.1316      0.00000
     40      84.1063      0.00000
     41      85.6242      0.00000
     42      86.1531      0.00000
     43      89.3371      0.00000
     44      91.3507      0.00000
     45      92.9515      0.00000
     46      94.8617      0.00000
     47      95.9389      0.00000
     48      98.0026      0.00000
     49     100.4679      0.00000
     50     105.6574      0.00000

 k-point   283 :      -0.2381    0.4286    0.1905
  band No.  band energies     occupation 
      1     -52.1127      2.00000
      2     -26.4038      2.00000
      3     -26.3463      2.00000
      4     -26.1985      2.00000
      5      -2.9328      2.00000
      6       5.7841      2.00000
      7       6.4690      2.00000
      8       6.8858      2.00000
      9      12.7992      1.39275
     10      13.1172      0.00000
     11      14.1763      0.00000
     12      15.2611      0.00000
     13      16.2029      0.00000
     14      24.6751      0.00000
     15      25.2254      0.00000
     16      26.5571      0.00000
     17      30.5859      0.00000
     18      35.1409      0.00000
     19      36.1623      0.00000
     20      43.0497      0.00000
     21      45.6621      0.00000
     22      46.4198      0.00000
     23      48.4624      0.00000
     24      48.9618      0.00000
     25      54.4486      0.00000
     26      55.2131      0.00000
     27      56.9282      0.00000
     28      57.2077      0.00000
     29      57.2687      0.00000
     30      57.9470      0.00000
     31      62.0875      0.00000
     32      63.4076      0.00000
     33      65.0602      0.00000
     34      65.5974      0.00000
     35      70.8148      0.00000
     36      75.0228      0.00000
     37      76.2997      0.00000
     38      79.6529      0.00000
     39      82.4713      0.00000
     40      83.9832      0.00000
     41      84.6462      0.00000
     42      87.6798      0.00000
     43      87.8776      0.00000
     44      92.9416      0.00000
     45      93.0598      0.00000
     46      94.4796      0.00000
     47      95.8233      0.00000
     48      96.8099      0.00000
     49      99.6911      0.00000
     50     100.8398      0.00000

 k-point   284 :      -0.3333    0.4762    0.1905
  band No.  band energies     occupation 
      1     -52.1100      2.00000
      2     -26.4261      2.00000
      3     -26.3130      2.00000
      4     -26.2259      2.00000
      5      -3.0463      2.00000
      6       6.1055      2.00000
      7       6.7356      2.00000
      8       6.9156      2.00000
      9      12.1188      2.00000
     10      13.5773      0.00000
     11      14.1447      0.00000
     12      15.0055      0.00000
     13      15.8729      0.00000
     14      25.0582      0.00000
     15      25.6311      0.00000
     16      25.8887      0.00000
     17      30.8441      0.00000
     18      34.8215      0.00000
     19      36.6642      0.00000
     20      42.8769      0.00000
     21      46.2955      0.00000
     22      46.7807      0.00000
     23      49.0918      0.00000
     24      49.6799      0.00000
     25      53.5151      0.00000
     26      53.9968      0.00000
     27      56.4310      0.00000
     28      56.6127      0.00000
     29      57.1716      0.00000
     30      58.2922      0.00000
     31      60.6494      0.00000
     32      62.0812      0.00000
     33      66.2572      0.00000
     34      68.2046      0.00000
     35      70.6364      0.00000
     36      72.4999      0.00000
     37      76.8318      0.00000
     38      81.3035      0.00000
     39      82.7450      0.00000
     40      83.2589      0.00000
     41      85.7006      0.00000
     42      87.2386      0.00000
     43      89.8258      0.00000
     44      90.6613      0.00000
     45      90.9779      0.00000
     46      95.4530      0.00000
     47      96.3689      0.00000
     48      98.7300      0.00000
     49     100.8350      0.00000
     50     101.9315      0.00000

 k-point   285 :      -0.2857    0.4762    0.1905
  band No.  band energies     occupation 
      1     -52.1098      2.00000
      2     -26.4017      2.00000
      3     -26.3411      2.00000
      4     -26.2249      2.00000
      5      -2.9960      2.00000
      6       6.2401      2.00000
      7       6.4174      2.00000
      8       6.8419      2.00000
      9      12.4793      2.00000
     10      13.3635      0.00000
     11      14.1457      0.00000
     12      15.1565      0.00000
     13      15.8466      0.00000
     14      25.1422      0.00000
     15      25.3736      0.00000
     16      26.2342      0.00000
     17      30.5187      0.00000
     18      35.2125      0.00000
     19      36.1743      0.00000
     20      42.8226      0.00000
     21      46.3423      0.00000
     22      46.5420      0.00000
     23      49.3740      0.00000
     24      49.8038      0.00000
     25      53.3686      0.00000
     26      54.9002      0.00000
     27      55.9693      0.00000
     28      56.6510      0.00000
     29      57.1636      0.00000
     30      58.1287      0.00000
     31      61.3085      0.00000
     32      62.8574      0.00000
     33      64.9479      0.00000
     34      66.9405      0.00000
     35      70.5610      0.00000
     36      73.5051      0.00000
     37      76.6600      0.00000
     38      80.4408      0.00000
     39      83.2182      0.00000
     40      83.9052      0.00000
     41      86.1571      0.00000
     42      87.3044      0.00000
     43      88.9239      0.00000
     44      90.2873      0.00000
     45      91.9222      0.00000
     46      95.8133      0.00000
     47      96.4181      0.00000
     48      97.9602      0.00000
     49      99.8858      0.00000
     50     105.1380      0.00000

 k-point   286 :      -0.2857    0.4762    0.2381
  band No.  band energies     occupation 
      1     -52.1099      2.00000
      2     -26.3841      2.00000
      3     -26.3569      2.00000
      4     -26.2265      2.00000
      5      -2.9728      2.00000
      6       6.2226      2.00000
      7       6.4446      2.00000
      8       6.7086      2.00000
      9      12.8140      1.07622
     10      13.1088      0.00000
     11      14.1451      0.00000
     12      15.1814      0.00000
     13      15.8722      0.00000
     14      25.1435      0.00000
     15      25.3015      0.00000
     16      26.4380      0.00000
     17      30.2924      0.00000
     18      35.4802      0.00000
     19      35.9030      0.00000
     20      42.8024      0.00000
     21      46.3083      0.00000
     22      46.4955      0.00000
     23      49.5162      0.00000
     24      49.5330      0.00000
     25      53.8294      0.00000
     26      55.1836      0.00000
     27      55.8698      0.00000
     28      56.5954      0.00000
     29      57.1011      0.00000
     30      57.9166      0.00000
     31      62.0431      0.00000
     32      62.9544      0.00000
     33      64.8752      0.00000
     34      65.8053      0.00000
     35      70.3613      0.00000
     36      74.4152      0.00000
     37      76.1108      0.00000
     38      80.4163      0.00000
     39      83.8534      0.00000
     40      84.0474      0.00000
     41      85.7071      0.00000
     42      87.5325      0.00000
     43      88.2345      0.00000
     44      90.1646      0.00000
     45      93.3817      0.00000
     46      95.5800      0.00000
     47      96.1525      0.00000
     48      97.9751      0.00000
     49     101.9209      0.00000
     50     102.3326      0.00000


--------------------------------------------------------------------------------------------------------


 soft charge-density along one line, spin component           1
         0         1         2         3         4         5         6         7         8         9
 total charge-density along one line
 
 pseudopotential strength for first ion, spin component:           1
-18.220  10.258  -0.000  -0.000   0.000   0.000   0.000  -0.000
 10.258   3.241   0.000   0.000  -0.000  -0.000  -0.000   0.000
 -0.000   0.000 -26.708   0.000   0.000   6.965  -0.000  -0.000
 -0.000   0.000   0.000 -26.708   0.000  -0.000   6.965  -0.000
  0.000  -0.000   0.000   0.000 -26.708  -0.000  -0.000   6.965
  0.000  -0.000   6.965  -0.000  -0.000   6.030   0.000   0.000
  0.000  -0.000  -0.000   6.965  -0.000   0.000   6.030   0.000
 -0.000   0.000  -0.000  -0.000   6.965   0.000   0.000   6.030
  0.000  -0.000   0.000   0.000  -0.000  -0.000  -0.000   0.000
  0.000  -0.000  -0.000  -0.000   0.000   0.000   0.000  -0.000
  0.000  -0.000   0.000  -0.000  -0.000  -0.000   0.000   0.000
  0.000  -0.000   0.000   0.000  -0.000  -0.000  -0.000   0.000
 -0.000   0.000   0.000  -0.000   0.000  -0.000   0.000  -0.000
  0.000  -0.000   0.000   0.000  -0.000  -0.000  -0.000   0.000
  0.000  -0.000  -0.000  -0.000   0.000   0.000   0.000  -0.000
  0.000  -0.000   0.000  -0.000  -0.000  -0.000   0.000   0.000
  0.000  -0.000   0.000   0.000  -0.000  -0.000  -0.000   0.000
 -0.000   0.000   0.000  -0.000   0.000  -0.000   0.000  -0.000
 total augmentation occupancy for first ion, spin component:           1
  1.995  -0.051   0.000   0.000   0.000   0.000   0.000   0.000  -0.000   0.000   0.000   0.000   0.000   0.000   0.000  -0.000
 -0.051   1.261   0.000   0.000   0.000   0.000   0.000   0.000  -0.000   0.000  -0.000   0.000   0.000   0.000  -0.000   0.000
  0.000   0.000   1.989  -0.000  -0.000  -0.049  -0.000   0.000   0.000   0.000   0.000   0.000   0.000   0.000   0.000   0.000
  0.000   0.000  -0.000   1.989   0.000  -0.000  -0.049  -0.000   0.000   0.000   0.000   0.000   0.000   0.000   0.000   0.000
  0.000   0.000  -0.000   0.000   1.989  -0.000   0.000  -0.049   0.000   0.000   0.000   0.000   0.000   0.000   0.000   0.000
  0.000   0.000  -0.049   0.000  -0.000   0.157   0.000   0.000   0.000   0.000   0.000   0.000   0.000   0.000   0.000   0.000
  0.000   0.000   0.000  -0.049   0.000   0.000   0.157   0.000   0.000   0.000   0.000   0.000   0.000   0.000   0.000   0.000
  0.000   0.000   0.000   0.000  -0.049   0.000   0.000   0.157   0.000   0.000   0.000   0.000   0.000   0.000   0.000   0.000
 -0.000  -0.000   0.000   0.000   0.000   0.000   0.000   0.000   5.179   0.000   0.000   0.000   0.000  -3.260   0.000   0.000
  0.000   0.000   0.000   0.000   0.000   0.000   0.000   0.000   0.000   5.179   0.000   0.000   0.000  -0.000  -3.260  -0.000
 -0.000  -0.000   0.000   0.000   0.000   0.000   0.000   0.000   0.000   0.000  12.878   0.000   0.000  -0.000  -0.000  -9.258
  0.000   0.000   0.000   0.000   0.000   0.000   0.000   0.000  -0.000   0.000   0.000   5.179  -0.000   0.000   0.000   0.000
  0.000   0.000   0.000   0.000   0.000   0.000   0.000   0.000   0.000   0.000   0.000   0.000  12.878  -0.000   0.000  -0.000
  0.000  -0.000   0.000   0.000   0.000   0.000   0.000   0.000  -3.260  -0.000  -0.000   0.000   0.000   2.329   0.000   0.000
  0.000   0.000   0.000   0.000   0.000   0.000   0.000   0.000   0.000  -3.260  -0.000  -0.000  -0.000   0.000   2.329   0.000
  0.000   0.000   0.000   0.000   0.000   0.000   0.000   0.000  -0.000  -0.000  -9.258   0.000   0.000   0.000   0.000   6.752
 -0.000  -0.000   0.000   0.000   0.000   0.000   0.000   0.000   0.000  -0.000  -0.000  -3.260   0.000  -0.000   0.000   0.000
  0.000   0.000   0.000   0.000   0.000   0.000   0.000   0.000   0.000  -0.000   0.000   0.000  -9.258  -0.000   0.000   0.000


------------------------ aborting loop because EDIFF is reached ----------------------------------------


    CHARGE:  cpu time    0.6713: real time    0.4085
    FORLOC:  cpu time    0.0030: real time    0.0030
    FORNL :  cpu time    0.9070: real time    0.9074
    STRESS:  cpu time    3.6801: real time    1.2825
    FORCOR:  cpu time    0.2790: real time    0.0934
    FORHAR:  cpu time    0.0280: real time    0.0096
    MIXING:  cpu time    0.0021: real time    0.0021
    OFIELD:  cpu time    0.0000: real time    0.0000

  FORCE on cell =-STRESS in cart. coord.  units (eV):
  Direction    XX          YY          ZZ          XY          YZ          ZX
  --------------------------------------------------------------------------------------
  Alpha Z   115.92184   115.92184   115.92184
  Ewald    -607.85544  -607.85544  -607.85544     0.00000     0.00000     0.00000
  Hartree   131.22437   131.22437   131.22437     0.00000     0.00000     0.00000
  E(xc)     -92.88852   -92.88852   -92.88852     0.00000     0.00000     0.00000
  Local     110.96615   110.96615   110.96615    -0.00000    -0.00000    -0.00000
  n-local   -19.61195   -20.03435   -17.60206     2.03901    -2.81594     1.97055
  augment    89.74362    89.74362    89.74362     0.00000     0.00000     0.00000
  Kinetic   276.77129   278.72648   260.31345     3.26921    -7.20842     5.22233
  Fock        0.00000     0.00000     0.00000     0.00000     0.00000     0.00000
  -------------------------------------------------------------------------------------
  Total      -0.03369    -0.03369    -0.03369     0.00000     0.00000    -0.00000
  in kB      -3.19965    -3.19965    -3.19965     0.00000     0.00000    -0.00000
  external pressure =       -3.20 kB  Pullay stress =        0.00 kB


 VOLUME and BASIS-vectors are now :
 -----------------------------------------------------------------------------
  energy-cutoff  :      500.00
  volume of cell :       16.87
      direct lattice vectors                 reciprocal lattice vectors
     0.000000000  2.035576500  2.035576500    -0.245630660  0.245630660  0.245630660
     2.035576500  0.000000000  2.035576500     0.245630660 -0.245630660  0.245630660
     2.035576500  2.035576500  0.000000000     0.245630660  0.245630660 -0.245630660

  length of vectors
     2.878739894  2.878739894  2.878739894     0.425444784  0.425444784  0.425444784


 FORCES acting on ions
    electron-ion (+dipol)            ewald-force                    non-local-force                 convergence-correction
 -----------------------------------------------------------------------------------------------
   -.371E-13 -.296E-13 -.223E-13   -.258E-14 -.667E-14 -.309E-15   0.207E-24 0.207E-24 -.165E-23   0.149E-13 -.178E-13 0.750E-14
   0.845E-12 -.116E-11 -.619E-12   0.173E-14 0.807E-15 0.144E-14   -.124E-23 -.207E-23 0.165E-23   0.158E-14 -.334E-14 -.338E-15
 -----------------------------------------------------------------------------------------------
   0.808E-12 -.119E-11 -.642E-12   -.852E-15 -.586E-14 0.113E-14   -.103E-23 -.186E-23 0.000E+00   0.165E-13 -.211E-13 0.716E-14
 
 
 POSITION                                       TOTAL-FORCE (eV/Angst)
 -----------------------------------------------------------------------------------
      0.00000      0.00000      0.00000         0.000000      0.000000     -0.000000
      2.03558      2.03558      2.03558         0.000000      0.000000      0.000000
 -----------------------------------------------------------------------------------
    total drift:                                0.000000     -0.000000     -0.000000


--------------------------------------------------------------------------------------------------------



  FREE ENERGIE OF THE ION-ELECTRON SYSTEM (eV)
  ---------------------------------------------------
  free  energy   TOTEN  =       -20.08340867 eV

  energy  without entropy=      -20.08099147  energy(sigma->0) =      -20.08220007
 


--------------------------------------------------------------------------------------------------------


    POTLOK:  cpu time    0.1043: real time    0.1046


--------------------------------------------------------------------------------------------------------


     LOOP+:  cpu time  734.1330: real time  249.1293
    4ORBIT:  cpu time    0.0000: real time    0.0000

 total amount of memory used by VASP on root node   185007. kBytes
========================================================================

   base      :      30000. kBytes
   nonl-proj :      36585. kBytes
   fftplans  :       3916. kBytes
   grid      :       6939. kBytes
   one-center:         31. kBytes
   wavefun   :     107536. kBytes
 
  
  
 General timing and accounting informations for this job:
 ========================================================
  
                  Total CPU time used (sec):      735.574
                            User time (sec):      729.484
                          System time (sec):        6.090
                         Elapsed time (sec):      250.328
  
                   Maximum memory used (kb):   203849728.
                   Average memory used (kb):           0.
  
                          Minor page faults:        57636
                          Major page faults:          161
                 Voluntary context switches:            8
