 vasp.5.4.1 24Jun15 (build Jan 21 2017 23:00:56) complex                        
  
 executed on           IFC91_ompi date 2017.01.22  08:32:28
 running on    1 total cores
 distrk:  each k-point on    1 cores,    1 groups
 distr:  one band on NCORES_PER_BAND=   1 cores,    1 groups


--------------------------------------------------------------------------------------------------------


 INCAR:
 POTCAR:    PAW_PBE V_sv 02Aug2007                
 POTCAR:    PAW_PBE N_s 07Sep2000                 
 POTCAR:    PAW_PBE V_sv 02Aug2007                
   VRHFIN =V: p6 d4 s1                                                          
   LEXCH  = PE                                                                  
   EATOM  =  1952.1149 eV,  143.4764 Ry                                         
                                                                                
   TITEL  = PAW_PBE V_sv 02Aug2007                                              
   LULTRA =        F    use ultrasoft PP ?                                      
   IUNSCR =        1    unscreen: 0-lin 1-nonlin 2-no                           
   RPACOR =    2.000    partial core radius                                     
   POMASS =   50.941; ZVAL   =   13.000    mass and valenz                      
   RCORE  =    2.300    outmost cutoff radius                                   
   RWIGS  =    2.300; RWIGS  =    1.217    wigner-seitz radius (au A)           
   ENMAX  =  263.673; ENMIN  =  197.755 eV                                      
   ICORE  =        3    local potential                                         
   LCOR   =        T    correct aug charges                                     
   LPAW   =        T    paw PP                                                  
   EAUG   =  526.568                                                            
   RMAX   =    2.359    core radius for proj-oper                               
   RAUG   =    1.300    factor for augmentation sphere                          
   RDEP   =    2.430    radius for radial grids                                 
   RDEPT  =    1.870    core radius for aug-charge                              
                                                                                
   Atomic configuration                                                         
    8 entries                                                                   
     n  l   j            E        occ.                                          
     1  0  0.50     -5360.7193   2.0000                                         
     2  0  0.50      -598.4546   2.0000                                         
     2  1  1.50      -499.0155   6.0000                                         
     3  0  0.50       -66.5711   2.0000                                         
     4  0  0.50        -3.8743   1.0000                                         
     3  1  1.50       -40.5282   6.0000                                         
     3  2  2.50        -2.4291   4.0000                                         
     4  3  2.50        -1.3606   0.0000                                         
   Description                                                                  
     l       E           TYP  RCUT    TYP  RCUT                                 
     0    -66.5711413     23  1.800                                             
     0     -3.8742736     23  2.300                                             
     1    -40.5282350     23  2.000                                             
     1      5.4423304     23  2.000                                             
     2     -2.4290848     23  2.300                                             
     2     -1.0472431     23  2.300                                             
     3     -1.3605826     23  2.300                                             
  local pseudopotential read in
  partial core-charges read in
  partial kinetic energy density read in
  atomic valenz-charges read in
  non local Contribution for L=           0  read in
    real space projection operators read in
  non local Contribution for L=           0  read in
    real space projection operators read in
  non local Contribution for L=           1  read in
    real space projection operators read in
  non local Contribution for L=           1  read in
    real space projection operators read in
  non local Contribution for L=           2  read in
    real space projection operators read in
  non local Contribution for L=           2  read in
    real space projection operators read in
    PAW grid and wavefunctions read in
 
   number of l-projection  operators is LMAX  =           6
   number of lm-projection operators is LMMAX =          18
 
 POTCAR:    PAW_PBE N_s 07Sep2000                 
   VRHFIN =N: s2p3                                                              
   LEXCH  = PE                                                                  
   EATOM  =   264.5486 eV,   19.4438 Ry                                         
                                                                                
   TITEL  = PAW_PBE N_s 07Sep2000                                               
   LULTRA =        F    use ultrasoft PP ?                                      
   IUNSCR =        0    unscreen: 0-lin 1-nonlin 2-no                           
   RPACOR =    0.000    partial core radius                                     
   POMASS =   14.001; ZVAL   =    5.000    mass and valenz                      
   RCORE  =    1.850    outmost cutoff radius                                   
   RWIGS  =    1.850; RWIGS  =    0.979    wigner-seitz radius (au A)           
   ENMAX  =  279.692; ENMIN  =  209.769 eV                                      
   RCLOC  =    0.803    cutoff for local pot                                    
   LCOR   =        T    correct aug charges                                     
   LPAW   =        T    paw PP                                                  
   EAUG   =  384.743                                                            
   DEXC   =    0.000                                                            
   RMAX   =    1.893    core radius for proj-oper                               
   RAUG   =    1.300    factor for augmentation sphere                          
   RDEP   =    1.933    radius for radial grids                                 
   RDEPT  =    1.632    core radius for aug-charge                              
                                                                                
   Atomic configuration                                                         
    4 entries                                                                   
     n  l   j            E        occ.                                          
     1  0  0.50      -384.7179   2.0000                                         
     2  0  0.50       -18.5828   2.0000                                         
     2  1  0.50        -7.0898   3.0000                                         
     3  2  1.50        -1.3606   0.0000                                         
   Description                                                                  
     l       E           TYP  RCUT    TYP  RCUT                                 
     0    -18.5828119     23  1.500                                             
     0    -19.9433945     23  1.500                                             
     1     -7.0897853     23  1.850                                             
     1     -4.8150613     23  1.850                                             
  local pseudopotential read in
  atomic valenz-charges read in
  non local Contribution for L=           0  read in
    real space projection operators read in
  non local Contribution for L=           0  read in
    real space projection operators read in
  non local Contribution for L=           1  read in
    real space projection operators read in
  non local Contribution for L=           1  read in
    real space projection operators read in
    PAW grid and wavefunctions read in
 
   number of l-projection  operators is LMAX  =           4
   number of lm-projection operators is LMMAX =           8
 

 ----------------------------------------------------------------------------- 
|                                                                             |
|  ADVICE TO THIS USER RUNNING 'VASP/VAMP'   (HEAR YOUR MASTER'S VOICE ...):  |
|                                                                             |
|      You enforced a specific xc-type in the INCAR file,                     |
|      a different type was found on the POTCAR file                          |
|          I HOPE YOU KNOW, WHAT YOU ARE  DOING                               |
|                                                                             |
 ----------------------------------------------------------------------------- 

  PAW_PBE V_sv 02Aug2007                :
 energy of atom  1       EATOM=-1952.1149
 kinetic energy error for atom=    0.0070 (will be added to EATOM!!)
  PAW_PBE N_s 07Sep2000                 :
 energy of atom  2       EATOM= -264.5486
 kinetic energy error for atom=    0.0039 (will be added to EATOM!!)
 
 
 POSCAR: VN                                      
  positions in direct lattice
  No initial velocities read in
 exchange correlation table for  LEXCH =       13
   RHO(1)=    0.500       N(1)  =     2000
   RHO(2)=  100.500       N(2)  =     4000
 


--------------------------------------------------------------------------------------------------------


 ion  position               nearest neighbor table
   1  0.000  0.000  0.000-   2 2.04   2 2.04   2 2.04   2 2.04   2 2.04   2 2.04
   2  0.500  0.500  0.500-   1 2.04   1 2.04   1 2.04   1 2.04   1 2.04   1 2.04
 
  LATTYP: Found a face centered cubic cell.
 ALAT       =     4.0711530000
  
  Lattice vectors:
  
 A1 = (   0.0000000000,   2.0355765000,   2.0355765000)
 A2 = (   2.0355765000,   0.0000000000,   2.0355765000)
 A3 = (   2.0355765000,   2.0355765000,   0.0000000000)


Analysis of symmetry for initial positions (statically):
=====================================================================
 Subroutine PRICEL returns:
 Original cell was already a primitive cell.
 

 Routine SETGRP: Setting up the symmetry group for a 
 face centered cubic supercell.


 Subroutine GETGRP returns: Found 48 space group operations
 (whereof 48 operations were pure point group operations)
 out of a pool of 48 trial point group operations.


The static configuration has the point symmetry O_h .


Analysis of symmetry for dynamics (positions and initial velocities):
=====================================================================
 Subroutine PRICEL returns:
 Original cell was already a primitive cell.
 

 Routine SETGRP: Setting up the symmetry group for a 
 face centered cubic supercell.


 Subroutine GETGRP returns: Found 48 space group operations
 (whereof 48 operations were pure point group operations)
 out of a pool of 48 trial point group operations.


The dynamic configuration has the point symmetry O_h .


 Subroutine INISYM returns: Found 48 space group operations
 (whereof 48 operations are pure point group operations),
 and found     1 'primitive' translations

 
 
 KPOINTS: k-point high symmetry path              
  interpolating k-points between supplied coordinates
  k-points in reciprocal lattice
Space group operators:
 irot       det(A)        alpha          n_x          n_y          n_z        tau_x        tau_y        tau_z
    1     1.000000     0.000000     1.000000     0.000000     0.000000     0.000000     0.000000     0.000000
    2    -1.000000     0.000000     1.000000     0.000000     0.000000     0.000000     0.000000     0.000000
    3     1.000000   120.000000    -0.577350    -0.577350    -0.577350     0.000000     0.000000     0.000000
    4    -1.000000   120.000000    -0.577350    -0.577350    -0.577350     0.000000     0.000000     0.000000
    5     1.000000   120.000000     0.577350     0.577350     0.577350     0.000000     0.000000     0.000000
    6    -1.000000   120.000000     0.577350     0.577350     0.577350     0.000000     0.000000     0.000000
    7     1.000000    90.000000     0.000000     0.000000    -1.000000     0.000000     0.000000     0.000000
    8    -1.000000    90.000000     0.000000     0.000000    -1.000000     0.000000     0.000000     0.000000
    9     1.000000   180.000000     0.000000     0.707107     0.707107     0.000000     0.000000     0.000000
   10    -1.000000   180.000000     0.000000     0.707107     0.707107     0.000000     0.000000     0.000000
   11     1.000000    90.000000     0.000000     1.000000     0.000000     0.000000     0.000000     0.000000
   12    -1.000000    90.000000     0.000000     1.000000     0.000000     0.000000     0.000000     0.000000
   13     1.000000   180.000000     0.000000     0.000000     1.000000     0.000000     0.000000     0.000000
   14    -1.000000   180.000000     0.000000     0.000000     1.000000     0.000000     0.000000     0.000000
   15     1.000000   120.000000    -0.577350     0.577350     0.577350     0.000000     0.000000     0.000000
   16    -1.000000   120.000000    -0.577350     0.577350     0.577350     0.000000     0.000000     0.000000
   17     1.000000   120.000000    -0.577350     0.577350    -0.577350     0.000000     0.000000     0.000000
   18    -1.000000   120.000000    -0.577350     0.577350    -0.577350     0.000000     0.000000     0.000000
   19     1.000000    90.000000     0.000000     0.000000     1.000000     0.000000     0.000000     0.000000
   20    -1.000000    90.000000     0.000000     0.000000     1.000000     0.000000     0.000000     0.000000
   21     1.000000    90.000000    -1.000000     0.000000     0.000000     0.000000     0.000000     0.000000
   22    -1.000000    90.000000    -1.000000     0.000000     0.000000     0.000000     0.000000     0.000000
   23     1.000000   180.000000     0.707107     0.000000     0.707107     0.000000     0.000000     0.000000
   24    -1.000000   180.000000     0.707107     0.000000     0.707107     0.000000     0.000000     0.000000
   25     1.000000   120.000000     0.577350    -0.577350     0.577350     0.000000     0.000000     0.000000
   26    -1.000000   120.000000     0.577350    -0.577350     0.577350     0.000000     0.000000     0.000000
   27     1.000000   120.000000    -0.577350    -0.577350     0.577350     0.000000     0.000000     0.000000
   28    -1.000000   120.000000    -0.577350    -0.577350     0.577350     0.000000     0.000000     0.000000
   29     1.000000   180.000000     1.000000     0.000000     0.000000     0.000000     0.000000     0.000000
   30    -1.000000   180.000000     1.000000     0.000000     0.000000     0.000000     0.000000     0.000000
   31     1.000000    90.000000     0.000000    -1.000000     0.000000     0.000000     0.000000     0.000000
   32    -1.000000    90.000000     0.000000    -1.000000     0.000000     0.000000     0.000000     0.000000
   33     1.000000   180.000000     0.707107     0.707107     0.000000     0.000000     0.000000     0.000000
   34    -1.000000   180.000000     0.707107     0.707107     0.000000     0.000000     0.000000     0.000000
   35     1.000000    90.000000     1.000000     0.000000     0.000000     0.000000     0.000000     0.000000
   36    -1.000000    90.000000     1.000000     0.000000     0.000000     0.000000     0.000000     0.000000
   37     1.000000   120.000000     0.577350    -0.577350    -0.577350     0.000000     0.000000     0.000000
   38    -1.000000   120.000000     0.577350    -0.577350    -0.577350     0.000000     0.000000     0.000000
   39     1.000000   180.000000     0.000000     1.000000     0.000000     0.000000     0.000000     0.000000
   40    -1.000000   180.000000     0.000000     1.000000     0.000000     0.000000     0.000000     0.000000
   41     1.000000   120.000000     0.577350     0.577350    -0.577350     0.000000     0.000000     0.000000
   42    -1.000000   120.000000     0.577350     0.577350    -0.577350     0.000000     0.000000     0.000000
   43     1.000000   180.000000     0.000000    -0.707107     0.707107     0.000000     0.000000     0.000000
   44    -1.000000   180.000000     0.000000    -0.707107     0.707107     0.000000     0.000000     0.000000
   45     1.000000   180.000000     0.707107    -0.707107     0.000000     0.000000     0.000000     0.000000
   46    -1.000000   180.000000     0.707107    -0.707107     0.000000     0.000000     0.000000     0.000000
   47     1.000000   180.000000     0.707107     0.000000    -0.707107     0.000000     0.000000     0.000000
   48    -1.000000   180.000000     0.707107     0.000000    -0.707107     0.000000     0.000000     0.000000


--------------------------------------------------------------------------------------------------------




 Dimension of arrays:
   k-points           NKPTS =    160   k-points in BZ     NKDIM =    160   number of bands    NBANDS=     50
   number of dos      NEDOS =    301   number of ions     NIONS =      2
   non local maximal  LDIM  =      6   non local SUM 2l+1 LMDIM =     18
   total plane-waves  NPLWV =  13824
   max r-space proj   IRMAX =      1   max aug-charges    IRDMAX=  28133
   dimension x,y,z NGX =    24 NGY =   24 NGZ =   24
   dimension x,y,z NGXF=    48 NGYF=   48 NGZF=   48
   support grid    NGXF=    48 NGYF=   48 NGZF=   48
   ions per type =               1   1
 NGX,Y,Z   is equivalent  to a cutoff of  13.86, 13.86, 13.86 a.u.
 NGXF,Y,Z  is equivalent  to a cutoff of  27.72, 27.72, 27.72 a.u.


 I would recommend the setting:
   dimension x,y,z NGX =    21 NGY =   21 NGZ =   21
 SYSTEM =  unknown system                          
 POSCAR =  VN                                      

 Startparameter for this run:
   NWRITE =      2    write-flag & timer
   PREC   = accura    normal or accurate (medium, high low for compatibility)
   ISTART =      0    job   : 0-new  1-cont  2-samecut
   ICHARG =     11    charge: 1-file 2-atom 10-const
   ISPIN  =      1    spin polarized calculation?
   LNONCOLLINEAR =      F non collinear calculations
   LSORBIT =      F    spin-orbit coupling
   INIWAV =      1    electr: 0-lowe 1-rand  2-diag
   LASPH  =      F    aspherical Exc in radial PAW
   METAGGA=      F    non-selfconsistent MetaGGA calc.

 Electronic Relaxation 1
   ENCUT  =  500.0 eV  36.75 Ry    6.06 a.u.   5.25  5.25  5.25*2*pi/ulx,y,z
   ENINI  =  500.0     initial cutoff
   ENAUG  =  526.6 eV  augmentation charge cutoff
   NELM   =    200;   NELMIN=  2; NELMDL= -5     # of ELM steps 
   EDIFF  = 0.1E-05   stopping-criterion for ELM
   LREAL  =      F    real-space projection
   NLSPLINE    = F    spline interpolate recip. space projectors
   LCOMPAT=      F    compatible to vasp.4.4
   GGA_COMPAT  = T    GGA compatible to vasp.4.4-vasp.4.6
   LMAXPAW     = -100 max onsite density
   LMAXMIX     =    2 max onsite mixed and CHGCAR
   VOSKOWN=      0    Vosko Wilk Nusair interpolation
   ROPT   =    0.00000   0.00000
 Ionic relaxation
   EDIFFG = 0.1E-05   stopping-criterion for IOM
   NSW    =      0    number of steps for IOM
   NBLOCK =      1;   KBLOCK =      1    inner block; outer block 
   IBRION =     -1    ionic relax: 0-MD 1-quasi-New 2-CG
   NFREE  =      0    steps in history (QN), initial steepest desc. (CG)
   ISIF   =      3    stress and relaxation
   IWAVPR =     10    prediction:  0-non 1-charg 2-wave 3-comb
   ISYM   =      2    0-nonsym 1-usesym 2-fastsym
   LCORR  =      T    Harris-Foulkes like correction to forces

   POTIM  = 0.2000    time-step for ionic-motion
   TEIN   =    0.0    initial temperature
   TEBEG  =    0.0;   TEEND  =   0.0 temperature during run
   SMASS  =  -3.00    Nose mass-parameter (am)
   estimated Nose-frequenzy (Omega)   =  0.10E-29 period in steps =****** mass=  -0.189E-27a.u.
   SCALEE = 1.0000    scale energy and forces
   NPACO  =    256;   APACO  = 16.0  distance and # of slots for P.C.
   PSTRESS=    0.0 pullay stress

  Mass of Ions in am
   POMASS =  50.94 14.00
  Ionic Valenz
   ZVAL   =  13.00  5.00
  Atomic Wigner-Seitz radii
   RWIGS  =  -1.00 -1.00
  virtual crystal weights 
   VCA    =   1.00  1.00
   NELECT =      18.0000    total number of electrons
   NUPDOWN=      -1.0000    fix difference up-down

 DOS related values:
   EMIN   =  10.00;   EMAX   =-10.00  energy-range for DOS
   EFERMI =   0.00
   ISMEAR =     0;   SIGMA  =   0.05  broadening in eV -4-tet -1-fermi 0-gaus

 Electronic relaxation 2 (details)
   IALGO  =     48    algorithm
   LDIAG  =      T    sub-space diagonalisation (order eigenvalues)
   LSUBROT=      F    optimize rotation matrix (better conditioning)
   TURBO    =      0    0=normal 1=particle mesh
   IRESTART =      0    0=no restart 2=restart with 2 vectors
   NREBOOT  =      0    no. of reboots
   NMIN     =      0    reboot dimension
   EREF     =   0.00    reference energy to select bands
   IMIX   =      4    mixing-type and parameters
     AMIX     =   0.40;   BMIX     =  1.00
     AMIX_MAG =   1.60;   BMIX_MAG =  1.00
     AMIN     =   0.10
     WC   =   100.;   INIMIX=   1;  MIXPRE=   1;  MAXMIX= -45

 Intra band minimization:
   WEIMIN = 0.0000     energy-eigenvalue tresh-hold
   EBREAK =  0.50E-09  absolut break condition
   DEPER  =   0.30     relativ break condition  

   TIME   =   0.40     timestep for ELM

  volume/ion in A,a.u.               =       8.43        56.92
  Fermi-wavevector in a.u.,A,eV,Ry     =   1.672893  3.161310 38.076883  2.798572
  Thomas-Fermi vector in A             =   2.757960
 
 Write flags
   LWAVE  =      F    write WAVECAR
   LCHARG =      F    write CHGCAR
   LVTOT  =      F    write LOCPOT, total local potential
   LVHAR  =      F    write LOCPOT, Hartree potential only
   LELF   =      F    write electronic localiz. function (ELF)
   LORBIT =      0    0 simple, 1 ext, 2 COOP (PROOUT)


 Dipole corrections
   LMONO  =      F    monopole corrections only (constant potential shift)
   LDIPOL =      F    correct potential (dipole corrections)
   IDIPOL =      0    1-x, 2-y, 3-z, 4-all directions 
   EPSILON=  1.0000000 bulk dielectric constant

 Exchange correlation treatment:
   GGA     =    AM    GGA type
   LEXCH   =    13    internal setting for exchange type
   VOSKOWN=      0    Vosko Wilk Nusair interpolation
   LHFCALC =     F    Hartree Fock is set to
   LHFONE  =     F    Hartree Fock one center treatment
   AEXX    =    0.0000 exact exchange contribution

 Linear response parameters
   LEPSILON=     F    determine dielectric tensor
   LRPA    =     F    only Hartree local field effects (RPA)
   LNABLA  =     F    use nabla operator in PAW spheres
   LVEL    =     F    velocity operator in full k-point grid
   LINTERFAST=   F  fast interpolation
   KINTER  =     0    interpolate to denser k-point grid
   CSHIFT  =0.1000    complex shift for real part using Kramers Kronig
   OMEGAMAX=  -1.0    maximum frequency
   DEG_THRESHOLD= 0.2000000E-02 threshold for treating states as degnerate
   RTIME   =    0.100 relaxation time in fs

 Orbital magnetization related:
   ORBITALMAG=     F  switch on orbital magnetization
   LCHIMAG   =     F  perturbation theory with respect to B field
   DQ        =  0.001000  dq finite difference perturbation B field



--------------------------------------------------------------------------------------------------------


 Static calculation
 charge density and potential remain constant during run
 non-spin polarized calculation
 RMM-DIIS sequential band-by-band
 perform sub-space diagonalisation
    before iterative eigenvector-optimisation
 no mixing
 using additional bands           41
 reciprocal scheme for non local part
 use partial core corrections
 calculate Harris-corrections to forces 
   (improved forces if not selfconsistent)
 use gradient corrections 
 WARNING: stress and forces are not correct
  (second derivative of E(xc) not defined)
 use of overlap-Matrix (Vanderbilt PP)
 Gauss-broadening in eV      SIGMA  =   0.05


--------------------------------------------------------------------------------------------------------


  energy-cutoff  :      500.00
  volume of cell :       16.87
      direct lattice vectors                 reciprocal lattice vectors
     0.000000000  2.035576500  2.035576500    -0.245630660  0.245630660  0.245630660
     2.035576500  0.000000000  2.035576500     0.245630660 -0.245630660  0.245630660
     2.035576500  2.035576500  0.000000000     0.245630660  0.245630660 -0.245630660

  length of vectors
     2.878739894  2.878739894  2.878739894     0.425444784  0.425444784  0.425444784


 
 k-points in units of 2pi/SCALE and weight: k-point high symmetry path              
   0.00000000  0.00000000  0.00000000       0.006
   0.02564103  0.00000000  0.00000000       0.006
   0.05128205  0.00000000  0.00000000       0.006
   0.07692308  0.00000000  0.00000000       0.006
   0.10256410  0.00000000  0.00000000       0.006
   0.12820513  0.00000000  0.00000000       0.006
   0.15384615  0.00000000  0.00000000       0.006
   0.17948718  0.00000000  0.00000000       0.006
   0.20512821  0.00000000  0.00000000       0.006
   0.23076923  0.00000000  0.00000000       0.006
   0.25641026  0.00000000  0.00000000       0.006
   0.28205128  0.00000000  0.00000000       0.006
   0.30769231  0.00000000  0.00000000       0.006
   0.33333333  0.00000000  0.00000000       0.006
   0.35897436  0.00000000  0.00000000       0.006
   0.38461538  0.00000000  0.00000000       0.006
   0.41025641  0.00000000  0.00000000       0.006
   0.43589744  0.00000000  0.00000000       0.006
   0.46153846  0.00000000  0.00000000       0.006
   0.48717949  0.00000000  0.00000000       0.006
   0.51282051  0.00000000  0.00000000       0.006
   0.53846154  0.00000000  0.00000000       0.006
   0.56410256  0.00000000  0.00000000       0.006
   0.58974359  0.00000000  0.00000000       0.006
   0.61538462  0.00000000  0.00000000       0.006
   0.64102564  0.00000000  0.00000000       0.006
   0.66666667  0.00000000  0.00000000       0.006
   0.69230769  0.00000000  0.00000000       0.006
   0.71794872  0.00000000  0.00000000       0.006
   0.74358974  0.00000000  0.00000000       0.006
   0.76923077  0.00000000  0.00000000       0.006
   0.79487179  0.00000000  0.00000000       0.006
   0.82051282  0.00000000  0.00000000       0.006
   0.84615385  0.00000000  0.00000000       0.006
   0.87179487  0.00000000  0.00000000       0.006
   0.89743590  0.00000000  0.00000000       0.006
   0.92307692  0.00000000  0.00000000       0.006
   0.94871795  0.00000000  0.00000000       0.006
   0.97435897  0.00000000  0.00000000       0.006
   1.00000000  0.00000000  0.00000000       0.006
   0.00000000  1.00000000  1.00000000       0.006
   0.00000000  0.99358974  0.99358974       0.006
   0.00000000  0.98717949  0.98717949       0.006
   0.00000000  0.98076923  0.98076923       0.006
   0.00000000  0.97435897  0.97435897       0.006
   0.00000000  0.96794872  0.96794872       0.006
   0.00000000  0.96153846  0.96153846       0.006
   0.00000000  0.95512821  0.95512821       0.006
   0.00000000  0.94871795  0.94871795       0.006
   0.00000000  0.94230769  0.94230769       0.006
   0.00000000  0.93589744  0.93589744       0.006
   0.00000000  0.92948718  0.92948718       0.006
   0.00000000  0.92307692  0.92307692       0.006
   0.00000000  0.91666667  0.91666667       0.006
   0.00000000  0.91025641  0.91025641       0.006
   0.00000000  0.90384615  0.90384615       0.006
   0.00000000  0.89743590  0.89743590       0.006
   0.00000000  0.89102564  0.89102564       0.006
   0.00000000  0.88461538  0.88461538       0.006
   0.00000000  0.87820513  0.87820513       0.006
   0.00000000  0.87179487  0.87179487       0.006
   0.00000000  0.86538462  0.86538462       0.006
   0.00000000  0.85897436  0.85897436       0.006
   0.00000000  0.85256410  0.85256410       0.006
   0.00000000  0.84615385  0.84615385       0.006
   0.00000000  0.83974359  0.83974359       0.006
   0.00000000  0.83333333  0.83333333       0.006
   0.00000000  0.82692308  0.82692308       0.006
   0.00000000  0.82051282  0.82051282       0.006
   0.00000000  0.81410256  0.81410256       0.006
   0.00000000  0.80769231  0.80769231       0.006
   0.00000000  0.80128205  0.80128205       0.006
   0.00000000  0.79487179  0.79487179       0.006
   0.00000000  0.78846154  0.78846154       0.006
   0.00000000  0.78205128  0.78205128       0.006
   0.00000000  0.77564103  0.77564103       0.006
   0.00000000  0.76923077  0.76923077       0.006
   0.00000000  0.76282051  0.76282051       0.006
   0.00000000  0.75641026  0.75641026       0.006
   0.00000000  0.75000000  0.75000000       0.006
   0.00000000  0.75000000  0.75000000       0.006
   0.00000000  0.73076923  0.73076923       0.006
   0.00000000  0.71153846  0.71153846       0.006
   0.00000000  0.69230769  0.69230769       0.006
   0.00000000  0.67307692  0.67307692       0.006
   0.00000000  0.65384615  0.65384615       0.006
   0.00000000  0.63461538  0.63461538       0.006
   0.00000000  0.61538462  0.61538462       0.006
   0.00000000  0.59615385  0.59615385       0.006
   0.00000000  0.57692308  0.57692308       0.006
   0.00000000  0.55769231  0.55769231       0.006
   0.00000000  0.53846154  0.53846154       0.006
   0.00000000  0.51923077  0.51923077       0.006
   0.00000000  0.50000000  0.50000000       0.006
   0.00000000  0.48076923  0.48076923       0.006
   0.00000000  0.46153846  0.46153846       0.006
   0.00000000  0.44230769  0.44230769       0.006
   0.00000000  0.42307692  0.42307692       0.006
   0.00000000  0.40384615  0.40384615       0.006
   0.00000000  0.38461538  0.38461538       0.006
   0.00000000  0.36538462  0.36538462       0.006
   0.00000000  0.34615385  0.34615385       0.006
   0.00000000  0.32692308  0.32692308       0.006
   0.00000000  0.30769231  0.30769231       0.006
   0.00000000  0.28846154  0.28846154       0.006
   0.00000000  0.26923077  0.26923077       0.006
   0.00000000  0.25000000  0.25000000       0.006
   0.00000000  0.23076923  0.23076923       0.006
   0.00000000  0.21153846  0.21153846       0.006
   0.00000000  0.19230769  0.19230769       0.006
   0.00000000  0.17307692  0.17307692       0.006
   0.00000000  0.15384615  0.15384615       0.006
   0.00000000  0.13461538  0.13461538       0.006
   0.00000000  0.11538462  0.11538462       0.006
   0.00000000  0.09615385  0.09615385       0.006
   0.00000000  0.07692308  0.07692308       0.006
   0.00000000  0.05769231  0.05769231       0.006
   0.00000000  0.03846154  0.03846154       0.006
   0.00000000  0.01923077  0.01923077       0.006
   0.00000000  0.00000000  0.00000000       0.006
   0.00000000  0.00000000  0.00000000       0.006
   0.01282051  0.01282051  0.01282051       0.006
   0.02564103  0.02564103  0.02564103       0.006
   0.03846154  0.03846154  0.03846154       0.006
   0.05128205  0.05128205  0.05128205       0.006
   0.06410256  0.06410256  0.06410256       0.006
   0.07692308  0.07692308  0.07692308       0.006
   0.08974359  0.08974359  0.08974359       0.006
   0.10256410  0.10256410  0.10256410       0.006
   0.11538462  0.11538462  0.11538462       0.006
   0.12820513  0.12820513  0.12820513       0.006
   0.14102564  0.14102564  0.14102564       0.006
   0.15384615  0.15384615  0.15384615       0.006
   0.16666667  0.16666667  0.16666667       0.006
   0.17948718  0.17948718  0.17948718       0.006
   0.19230769  0.19230769  0.19230769       0.006
   0.20512821  0.20512821  0.20512821       0.006
   0.21794872  0.21794872  0.21794872       0.006
   0.23076923  0.23076923  0.23076923       0.006
   0.24358974  0.24358974  0.24358974       0.006
   0.25641026  0.25641026  0.25641026       0.006
   0.26923077  0.26923077  0.26923077       0.006
   0.28205128  0.28205128  0.28205128       0.006
   0.29487179  0.29487179  0.29487179       0.006
   0.30769231  0.30769231  0.30769231       0.006
   0.32051282  0.32051282  0.32051282       0.006
   0.33333333  0.33333333  0.33333333       0.006
   0.34615385  0.34615385  0.34615385       0.006
   0.35897436  0.35897436  0.35897436       0.006
   0.37179487  0.37179487  0.37179487       0.006
   0.38461538  0.38461538  0.38461538       0.006
   0.39743590  0.39743590  0.39743590       0.006
   0.41025641  0.41025641  0.41025641       0.006
   0.42307692  0.42307692  0.42307692       0.006
   0.43589744  0.43589744  0.43589744       0.006
   0.44871795  0.44871795  0.44871795       0.006
   0.46153846  0.46153846  0.46153846       0.006
   0.47435897  0.47435897  0.47435897       0.006
   0.48717949  0.48717949  0.48717949       0.006
   0.50000000  0.50000000  0.50000000       0.006
 
 k-points in reciprocal lattice and weights: k-point high symmetry path              
   0.00000000  0.00000000  0.00000000       0.006
   0.00000000  0.01282051  0.01282051       0.006
   0.00000000  0.02564103  0.02564103       0.006
   0.00000000  0.03846154  0.03846154       0.006
   0.00000000  0.05128205  0.05128205       0.006
   0.00000000  0.06410256  0.06410256       0.006
   0.00000000  0.07692308  0.07692308       0.006
   0.00000000  0.08974359  0.08974359       0.006
   0.00000000  0.10256410  0.10256410       0.006
   0.00000000  0.11538462  0.11538462       0.006
   0.00000000  0.12820513  0.12820513       0.006
   0.00000000  0.14102564  0.14102564       0.006
   0.00000000  0.15384615  0.15384615       0.006
   0.00000000  0.16666667  0.16666667       0.006
   0.00000000  0.17948718  0.17948718       0.006
   0.00000000  0.19230769  0.19230769       0.006
   0.00000000  0.20512821  0.20512821       0.006
   0.00000000  0.21794872  0.21794872       0.006
   0.00000000  0.23076923  0.23076923       0.006
   0.00000000  0.24358974  0.24358974       0.006
   0.00000000  0.25641026  0.25641026       0.006
   0.00000000  0.26923077  0.26923077       0.006
   0.00000000  0.28205128  0.28205128       0.006
   0.00000000  0.29487179  0.29487179       0.006
   0.00000000  0.30769231  0.30769231       0.006
   0.00000000  0.32051282  0.32051282       0.006
   0.00000000  0.33333333  0.33333333       0.006
   0.00000000  0.34615385  0.34615385       0.006
   0.00000000  0.35897436  0.35897436       0.006
   0.00000000  0.37179487  0.37179487       0.006
   0.00000000  0.38461538  0.38461538       0.006
   0.00000000  0.39743590  0.39743590       0.006
   0.00000000  0.41025641  0.41025641       0.006
   0.00000000  0.42307692  0.42307692       0.006
   0.00000000  0.43589744  0.43589744       0.006
   0.00000000  0.44871795  0.44871795       0.006
   0.00000000  0.46153846  0.46153846       0.006
   0.00000000  0.47435897  0.47435897       0.006
   0.00000000  0.48717949  0.48717949       0.006
   0.00000000  0.50000000  0.50000000       0.006
   1.00000000  0.50000000  0.50000000       0.006
   0.99358974  0.49679487  0.49679487       0.006
   0.98717949  0.49358974  0.49358974       0.006
   0.98076923  0.49038462  0.49038462       0.006
   0.97435897  0.48717949  0.48717949       0.006
   0.96794872  0.48397436  0.48397436       0.006
   0.96153846  0.48076923  0.48076923       0.006
   0.95512821  0.47756410  0.47756410       0.006
   0.94871795  0.47435897  0.47435897       0.006
   0.94230769  0.47115385  0.47115385       0.006
   0.93589744  0.46794872  0.46794872       0.006
   0.92948718  0.46474359  0.46474359       0.006
   0.92307692  0.46153846  0.46153846       0.006
   0.91666667  0.45833333  0.45833333       0.006
   0.91025641  0.45512821  0.45512821       0.006
   0.90384615  0.45192308  0.45192308       0.006
   0.89743590  0.44871795  0.44871795       0.006
   0.89102564  0.44551282  0.44551282       0.006
   0.88461538  0.44230769  0.44230769       0.006
   0.87820513  0.43910256  0.43910256       0.006
   0.87179487  0.43589744  0.43589744       0.006
   0.86538462  0.43269231  0.43269231       0.006
   0.85897436  0.42948718  0.42948718       0.006
   0.85256410  0.42628205  0.42628205       0.006
   0.84615385  0.42307692  0.42307692       0.006
   0.83974359  0.41987179  0.41987179       0.006
   0.83333333  0.41666667  0.41666667       0.006
   0.82692308  0.41346154  0.41346154       0.006
   0.82051282  0.41025641  0.41025641       0.006
   0.81410256  0.40705128  0.40705128       0.006
   0.80769231  0.40384615  0.40384615       0.006
   0.80128205  0.40064103  0.40064103       0.006
   0.79487179  0.39743590  0.39743590       0.006
   0.78846154  0.39423077  0.39423077       0.006
   0.78205128  0.39102564  0.39102564       0.006
   0.77564103  0.38782051  0.38782051       0.006
   0.76923077  0.38461538  0.38461538       0.006
   0.76282051  0.38141026  0.38141026       0.006
   0.75641026  0.37820513  0.37820513       0.006
   0.75000000  0.37500000  0.37500000       0.006
   0.75000000  0.37500000  0.37500000       0.006
   0.73076923  0.36538462  0.36538462       0.006
   0.71153846  0.35576923  0.35576923       0.006
   0.69230769  0.34615385  0.34615385       0.006
   0.67307692  0.33653846  0.33653846       0.006
   0.65384615  0.32692308  0.32692308       0.006
   0.63461538  0.31730769  0.31730769       0.006
   0.61538462  0.30769231  0.30769231       0.006
   0.59615385  0.29807692  0.29807692       0.006
   0.57692308  0.28846154  0.28846154       0.006
   0.55769231  0.27884615  0.27884615       0.006
   0.53846154  0.26923077  0.26923077       0.006
   0.51923077  0.25961538  0.25961538       0.006
   0.50000000  0.25000000  0.25000000       0.006
   0.48076923  0.24038462  0.24038462       0.006
   0.46153846  0.23076923  0.23076923       0.006
   0.44230769  0.22115385  0.22115385       0.006
   0.42307692  0.21153846  0.21153846       0.006
   0.40384615  0.20192308  0.20192308       0.006
   0.38461538  0.19230769  0.19230769       0.006
   0.36538462  0.18269231  0.18269231       0.006
   0.34615385  0.17307692  0.17307692       0.006
   0.32692308  0.16346154  0.16346154       0.006
   0.30769231  0.15384615  0.15384615       0.006
   0.28846154  0.14423077  0.14423077       0.006
   0.26923077  0.13461538  0.13461538       0.006
   0.25000000  0.12500000  0.12500000       0.006
   0.23076923  0.11538462  0.11538462       0.006
   0.21153846  0.10576923  0.10576923       0.006
   0.19230769  0.09615385  0.09615385       0.006
   0.17307692  0.08653846  0.08653846       0.006
   0.15384615  0.07692308  0.07692308       0.006
   0.13461538  0.06730769  0.06730769       0.006
   0.11538462  0.05769231  0.05769231       0.006
   0.09615385  0.04807692  0.04807692       0.006
   0.07692308  0.03846154  0.03846154       0.006
   0.05769231  0.02884615  0.02884615       0.006
   0.03846154  0.01923077  0.01923077       0.006
   0.01923077  0.00961538  0.00961538       0.006
   0.00000000  0.00000000  0.00000000       0.006
   0.00000000  0.00000000  0.00000000       0.006
   0.01282051  0.01282051  0.01282051       0.006
   0.02564103  0.02564103  0.02564103       0.006
   0.03846154  0.03846154  0.03846154       0.006
   0.05128205  0.05128205  0.05128205       0.006
   0.06410256  0.06410256  0.06410256       0.006
   0.07692308  0.07692308  0.07692308       0.006
   0.08974359  0.08974359  0.08974359       0.006
   0.10256410  0.10256410  0.10256410       0.006
   0.11538462  0.11538462  0.11538462       0.006
   0.12820513  0.12820513  0.12820513       0.006
   0.14102564  0.14102564  0.14102564       0.006
   0.15384615  0.15384615  0.15384615       0.006
   0.16666667  0.16666667  0.16666667       0.006
   0.17948718  0.17948718  0.17948718       0.006
   0.19230769  0.19230769  0.19230769       0.006
   0.20512821  0.20512821  0.20512821       0.006
   0.21794872  0.21794872  0.21794872       0.006
   0.23076923  0.23076923  0.23076923       0.006
   0.24358974  0.24358974  0.24358974       0.006
   0.25641026  0.25641026  0.25641026       0.006
   0.26923077  0.26923077  0.26923077       0.006
   0.28205128  0.28205128  0.28205128       0.006
   0.29487179  0.29487179  0.29487179       0.006
   0.30769231  0.30769231  0.30769231       0.006
   0.32051282  0.32051282  0.32051282       0.006
   0.33333333  0.33333333  0.33333333       0.006
   0.34615385  0.34615385  0.34615385       0.006
   0.35897436  0.35897436  0.35897436       0.006
   0.37179487  0.37179487  0.37179487       0.006
   0.38461538  0.38461538  0.38461538       0.006
   0.39743590  0.39743590  0.39743590       0.006
   0.41025641  0.41025641  0.41025641       0.006
   0.42307692  0.42307692  0.42307692       0.006
   0.43589744  0.43589744  0.43589744       0.006
   0.44871795  0.44871795  0.44871795       0.006
   0.46153846  0.46153846  0.46153846       0.006
   0.47435897  0.47435897  0.47435897       0.006
   0.48717949  0.48717949  0.48717949       0.006
   0.50000000  0.50000000  0.50000000       0.006
 
 position of ions in fractional coordinates (direct lattice) 
   0.00000000  0.00000000  0.00000000
   0.50000000  0.50000000  0.50000000
 
 position of ions in cartesian coordinates  (Angst):
   0.00000000  0.00000000  0.00000000
   2.03557650  2.03557650  2.03557650
 


--------------------------------------------------------------------------------------------------------


 k-point  1 :   0.0000 0.0000 0.0000  plane waves:     411
 k-point  2 :   0.0000 0.0128 0.0128  plane waves:     411
 k-point  3 :   0.0000 0.0256 0.0256  plane waves:     411
 k-point  4 :   0.0000 0.0385 0.0385  plane waves:     419
 k-point  5 :   0.0000 0.0513 0.0513  plane waves:     419
 k-point  6 :   0.0000 0.0641 0.0641  plane waves:     427
 k-point  7 :   0.0000 0.0769 0.0769  plane waves:     427
 k-point  8 :   0.0000 0.0897 0.0897  plane waves:     427
 k-point  9 :   0.0000 0.1026 0.1026  plane waves:     427
 k-point 10 :   0.0000 0.1154 0.1154  plane waves:     427
 k-point 11 :   0.0000 0.1282 0.1282  plane waves:     431
 k-point 12 :   0.0000 0.1410 0.1410  plane waves:     431
 k-point 13 :   0.0000 0.1538 0.1538  plane waves:     435
 k-point 14 :   0.0000 0.1667 0.1667  plane waves:     435
 k-point 15 :   0.0000 0.1795 0.1795  plane waves:     435
 k-point 16 :   0.0000 0.1923 0.1923  plane waves:     431
 k-point 17 :   0.0000 0.2051 0.2051  plane waves:     431
 k-point 18 :   0.0000 0.2179 0.2179  plane waves:     431
 k-point 19 :   0.0000 0.2308 0.2308  plane waves:     431
 k-point 20 :   0.0000 0.2436 0.2436  plane waves:     431
 k-point 21 :   0.0000 0.2564 0.2564  plane waves:     431
 k-point 22 :   0.0000 0.2692 0.2692  plane waves:     431
 k-point 23 :   0.0000 0.2821 0.2821  plane waves:     431
 k-point 24 :   0.0000 0.2949 0.2949  plane waves:     432
 k-point 25 :   0.0000 0.3077 0.3077  plane waves:     432
 k-point 26 :   0.0000 0.3205 0.3205  plane waves:     432
 k-point 27 :   0.0000 0.3333 0.3333  plane waves:     432
 k-point 28 :   0.0000 0.3462 0.3462  plane waves:     432
 k-point 29 :   0.0000 0.3590 0.3590  plane waves:     432
 k-point 30 :   0.0000 0.3718 0.3718  plane waves:     444
 k-point 31 :   0.0000 0.3846 0.3846  plane waves:     444
 k-point 32 :   0.0000 0.3974 0.3974  plane waves:     444
 k-point 33 :   0.0000 0.4103 0.4103  plane waves:     440
 k-point 34 :   0.0000 0.4231 0.4231  plane waves:     440
 k-point 35 :   0.0000 0.4359 0.4359  plane waves:     440
 k-point 36 :   0.0000 0.4487 0.4487  plane waves:     440
 k-point 37 :   0.0000 0.4615 0.4615  plane waves:     444
 k-point 38 :   0.0000 0.4744 0.4744  plane waves:     444
 k-point 39 :   0.0000 0.4872 0.4872  plane waves:     444
 k-point 40 :   0.0000 0.5000 0.5000  plane waves:     444
 k-point 41 :   1.0000 0.5000 0.5000  plane waves:     444
 k-point 42 :   0.9936 0.4968 0.4968  plane waves:     444
 k-point 43 :   0.9872 0.4936 0.4936  plane waves:     444
 k-point 44 :   0.9808 0.4904 0.4904  plane waves:     444
 k-point 45 :   0.9744 0.4872 0.4872  plane waves:     444
 k-point 46 :   0.9679 0.4840 0.4840  plane waves:     444
 k-point 47 :   0.9615 0.4808 0.4808  plane waves:     444
 k-point 48 :   0.9551 0.4776 0.4776  plane waves:     444
 k-point 49 :   0.9487 0.4744 0.4744  plane waves:     444
 k-point 50 :   0.9423 0.4712 0.4712  plane waves:     442
 k-point 51 :   0.9359 0.4679 0.4679  plane waves:     442
 k-point 52 :   0.9295 0.4647 0.4647  plane waves:     438
 k-point 53 :   0.9231 0.4615 0.4615  plane waves:     438
 k-point 54 :   0.9167 0.4583 0.4583  plane waves:     438
 k-point 55 :   0.9103 0.4551 0.4551  plane waves:     438
 k-point 56 :   0.9038 0.4519 0.4519  plane waves:     432
 k-point 57 :   0.8974 0.4487 0.4487  plane waves:     432
 k-point 58 :   0.8910 0.4455 0.4455  plane waves:     428
 k-point 59 :   0.8846 0.4423 0.4423  plane waves:     428
 k-point 60 :   0.8782 0.4391 0.4391  plane waves:     430
 k-point 61 :   0.8718 0.4359 0.4359  plane waves:     430
 k-point 62 :   0.8654 0.4327 0.4327  plane waves:     430
 k-point 63 :   0.8590 0.4295 0.4295  plane waves:     430
 k-point 64 :   0.8526 0.4263 0.4263  plane waves:     432
 k-point 65 :   0.8462 0.4231 0.4231  plane waves:     432
 k-point 66 :   0.8397 0.4199 0.4199  plane waves:     432
 k-point 67 :   0.8333 0.4167 0.4167  plane waves:     432
 k-point 68 :   0.8269 0.4135 0.4135  plane waves:     432
 k-point 69 :   0.8205 0.4103 0.4103  plane waves:     432
 k-point 70 :   0.8141 0.4071 0.4071  plane waves:     432
 k-point 71 :   0.8077 0.4038 0.4038  plane waves:     432
 k-point 72 :   0.8013 0.4006 0.4006  plane waves:     432
 k-point 73 :   0.7949 0.3974 0.3974  plane waves:     432
 k-point 74 :   0.7885 0.3942 0.3942  plane waves:     432
 k-point 75 :   0.7821 0.3910 0.3910  plane waves:     432
 k-point 76 :   0.7756 0.3878 0.3878  plane waves:     432
 k-point 77 :   0.7692 0.3846 0.3846  plane waves:     432
 k-point 78 :   0.7628 0.3814 0.3814  plane waves:     432
 k-point 79 :   0.7564 0.3782 0.3782  plane waves:     432
 k-point 80 :   0.7500 0.3750 0.3750  plane waves:     431
 k-point 81 :   0.7500 0.3750 0.3750  plane waves:     431
 k-point 82 :   0.7308 0.3654 0.3654  plane waves:     433
 k-point 83 :   0.7115 0.3558 0.3558  plane waves:     433
 k-point 84 :   0.6923 0.3462 0.3462  plane waves:     431
 k-point 85 :   0.6731 0.3365 0.3365  plane waves:     431
 k-point 86 :   0.6538 0.3269 0.3269  plane waves:     431
 k-point 87 :   0.6346 0.3173 0.3173  plane waves:     431
 k-point 88 :   0.6154 0.3077 0.3077  plane waves:     431
 k-point 89 :   0.5962 0.2981 0.2981  plane waves:     431
 k-point 90 :   0.5769 0.2885 0.2885  plane waves:     431
 k-point 91 :   0.5577 0.2788 0.2788  plane waves:     423
 k-point 92 :   0.5385 0.2692 0.2692  plane waves:     423
 k-point 93 :   0.5192 0.2596 0.2596  plane waves:     423
 k-point 94 :   0.5000 0.2500 0.2500  plane waves:     423
 k-point 95 :   0.4808 0.2404 0.2404  plane waves:     423
 k-point 96 :   0.4615 0.2308 0.2308  plane waves:     423
 k-point 97 :   0.4423 0.2212 0.2212  plane waves:     427
 k-point 98 :   0.4231 0.2115 0.2115  plane waves:     427
 k-point 99 :   0.4038 0.2019 0.2019  plane waves:     429
 k-point ** :   0.3846 0.1923 0.1923  plane waves:     429
 k-point ** :   0.3654 0.1827 0.1827  plane waves:     429
 k-point ** :   0.3462 0.1731 0.1731  plane waves:     433
 k-point ** :   0.3269 0.1635 0.1635  plane waves:     429
 k-point ** :   0.3077 0.1538 0.1538  plane waves:     437
 k-point ** :   0.2885 0.1442 0.1442  plane waves:     437
 k-point ** :   0.2692 0.1346 0.1346  plane waves:     437
 k-point ** :   0.2500 0.1250 0.1250  plane waves:     421
 k-point ** :   0.2308 0.1154 0.1154  plane waves:     429
 k-point ** :   0.2115 0.1058 0.1058  plane waves:     429
 k-point ** :   0.1923 0.0962 0.0962  plane waves:     425
 k-point ** :   0.1731 0.0865 0.0865  plane waves:     425
 k-point ** :   0.1538 0.0769 0.0769  plane waves:     425
 k-point ** :   0.1346 0.0673 0.0673  plane waves:     427
 k-point ** :   0.1154 0.0577 0.0577  plane waves:     423
 k-point ** :   0.0962 0.0481 0.0481  plane waves:     423
 k-point ** :   0.0769 0.0385 0.0385  plane waves:     423
 k-point ** :   0.0577 0.0288 0.0288  plane waves:     419
 k-point ** :   0.0385 0.0192 0.0192  plane waves:     411
 k-point ** :   0.0192 0.0096 0.0096  plane waves:     411
 k-point ** :   0.0000 0.0000 0.0000  plane waves:     411
 k-point ** :   0.0000 0.0000 0.0000  plane waves:     411
 k-point ** :   0.0128 0.0128 0.0128  plane waves:     411
 k-point ** :   0.0256 0.0256 0.0256  plane waves:     411
 k-point ** :   0.0385 0.0385 0.0385  plane waves:     417
 k-point ** :   0.0513 0.0513 0.0513  plane waves:     417
 k-point ** :   0.0641 0.0641 0.0641  plane waves:     423
 k-point ** :   0.0769 0.0769 0.0769  plane waves:     423
 k-point ** :   0.0897 0.0897 0.0897  plane waves:     423
 k-point ** :   0.1026 0.1026 0.1026  plane waves:     423
 k-point ** :   0.1154 0.1154 0.1154  plane waves:     423
 k-point ** :   0.1282 0.1282 0.1282  plane waves:     429
 k-point ** :   0.1410 0.1410 0.1410  plane waves:     429
 k-point ** :   0.1538 0.1538 0.1538  plane waves:     426
 k-point ** :   0.1667 0.1667 0.1667  plane waves:     426
 k-point ** :   0.1795 0.1795 0.1795  plane waves:     426
 k-point ** :   0.1923 0.1923 0.1923  plane waves:     429
 k-point ** :   0.2051 0.2051 0.2051  plane waves:     429
 k-point ** :   0.2179 0.2179 0.2179  plane waves:     429
 k-point ** :   0.2308 0.2308 0.2308  plane waves:     429
 k-point ** :   0.2436 0.2436 0.2436  plane waves:     429
 k-point ** :   0.2564 0.2564 0.2564  plane waves:     429
 k-point ** :   0.2692 0.2692 0.2692  plane waves:     429
 k-point ** :   0.2821 0.2821 0.2821  plane waves:     423
 k-point ** :   0.2949 0.2949 0.2949  plane waves:     422
 k-point ** :   0.3077 0.3077 0.3077  plane waves:     425
 k-point ** :   0.3205 0.3205 0.3205  plane waves:     425
 k-point ** :   0.3333 0.3333 0.3333  plane waves:     425
 k-point ** :   0.3462 0.3462 0.3462  plane waves:     425
 k-point ** :   0.3590 0.3590 0.3590  plane waves:     425
 k-point ** :   0.3718 0.3718 0.3718  plane waves:     422
 k-point ** :   0.3846 0.3846 0.3846  plane waves:     422
 k-point ** :   0.3974 0.3974 0.3974  plane waves:     422
 k-point ** :   0.4103 0.4103 0.4103  plane waves:     422
 k-point ** :   0.4231 0.4231 0.4231  plane waves:     422
 k-point ** :   0.4359 0.4359 0.4359  plane waves:     422
 k-point ** :   0.4487 0.4487 0.4487  plane waves:     422
 k-point ** :   0.4615 0.4615 0.4615  plane waves:     428
 k-point ** :   0.4744 0.4744 0.4744  plane waves:     428
 k-point ** :   0.4872 0.4872 0.4872  plane waves:     434
 k-point ** :   0.5000 0.5000 0.5000  plane waves:     434

 maximum and minimum number of plane-waves per node :       444      411

 maximum number of plane-waves:       444
 maximum index in each direction: 
   IXMAX=    5   IYMAX=    5   IZMAX=    5
   IXMIN=   -6   IYMIN=   -5   IZMIN=   -5

 NGX is ok and might be reduce to  24
 NGY is ok and might be reduce to  22
 NGZ is ok and might be reduce to  22

 serial   3D FFT for wavefunctions
 parallel 3D FFT for charge:
    minimum data exchange during FFTs selected (reduces bandwidth)


 total amount of memory used by VASP on root node   121519. kBytes
========================================================================

   base      :      30000. kBytes
   nonl-proj :      20473. kBytes
   fftplans  :       3916. kBytes
   grid      :       6939. kBytes
   one-center:         31. kBytes
   wavefun   :      60160. kBytes
 
     INWAV:  cpu time    0.0000: real time    0.0000
 initial charge density was supplied:
 number of electron      18.0000005 magnetization 
 keeping initial charge density in first step


--------------------------------------------------------------------------------------------------------


 Maximum index for augmentation-charges        27115 (set IRDMAX)


--------------------------------------------------------------------------------------------------------


 First call to EWALD:  gamma=   0.691
 Maximum number of real-space cells 3x 3x 3
 Maximum number of reciprocal cells 3x 3x 3

 FEWALD executed in parallel
    FEWALD:  cpu time    0.0089: real time    0.0009


----------------------------------------- Iteration    1(   1)  ---------------------------------------


    POTLOK:  cpu time    0.2889: real time    0.0970
    SETDIJ:  cpu time    0.0301: real time    0.0101
    EDDIAG:  cpu time    6.8876: real time    2.3281
  RMM-DIIS:  cpu time   11.9438: real time    3.9932
    ORTHCH:  cpu time    0.1074: real time    0.0368
       DOS:  cpu time    0.0317: real time    0.0096
    --------------------------------------------
      LOOP:  cpu time   19.3017: real time    6.4803

 eigenvalue-minimisations  :  8000
 total energy-change (2. order) :-0.5899346E+02  (-0.4826712E+03)
 number of electron      18.0000005 magnetization 
 augmentation part       18.0000005 magnetization 

 Free energy of the ion-electron system (eV)
  ---------------------------------------------------
  alpha Z        PSCENC =       115.92183730
  Ewald energy   TEWEN  =     -1823.56586453
  -Hartree energ DENC   =      -393.66701707
  -exchange      EXHF   =         0.00000000
  -V(xc)+E(xc)   XCENC  =        92.30260291
  PAW double counting   =      3425.40895347    -3443.49507144
  entropy T*S    EENTRO =        -0.00150037
  eigenvalues    EBANDS =      -243.58673302
  atomic energy  EATOM  =      2211.68932980
  Solvation  Ediel_sol  =         0.00000000
  ---------------------------------------------------
  free energy    TOTEN  =       -58.99346294 eV

  energy without entropy =      -58.99196257  energy(sigma->0) =      -58.99271276


--------------------------------------------------------------------------------------------------------




----------------------------------------- Iteration    1(   2)  ---------------------------------------


    EDDIAG:  cpu time    6.6668: real time    2.2329
  RMM-DIIS:  cpu time   11.9481: real time    3.9988
    ORTHCH:  cpu time    0.1289: real time    0.0434
       DOS:  cpu time    0.0352: real time    0.0119
    --------------------------------------------
      LOOP:  cpu time   18.7911: real time    6.2926

 eigenvalue-minimisations  :  8000
 total energy-change (2. order) : 0.4424042E+02  (-0.2418866E+02)
 number of electron      18.0000005 magnetization 
 augmentation part       18.0000005 magnetization 

 Free energy of the ion-electron system (eV)
  ---------------------------------------------------
  alpha Z        PSCENC =       115.92183730
  Ewald energy   TEWEN  =     -1823.56586453
  -Hartree energ DENC   =      -393.66701707
  -exchange      EXHF   =         0.00000000
  -V(xc)+E(xc)   XCENC  =        92.30260291
  PAW double counting   =      3425.40895347    -3443.49507144
  entropy T*S    EENTRO =        -0.00236220
  eigenvalues    EBANDS =      -199.34544895
  atomic energy  EATOM  =      2211.68932980
  Solvation  Ediel_sol  =         0.00000000
  ---------------------------------------------------
  free energy    TOTEN  =       -14.75304071 eV

  energy without entropy =      -14.75067851  energy(sigma->0) =      -14.75185961


--------------------------------------------------------------------------------------------------------




----------------------------------------- Iteration    1(   3)  ---------------------------------------


    EDDIAG:  cpu time    6.7450: real time    2.2649
  RMM-DIIS:  cpu time   12.2487: real time    4.1068
    ORTHCH:  cpu time    0.1069: real time    0.0376
       DOS:  cpu time    0.0361: real time    0.0102
    --------------------------------------------
      LOOP:  cpu time   19.1485: real time    6.4253

 eigenvalue-minimisations  :  8000
 total energy-change (2. order) :-0.1848297E+01  (-0.7271593E+00)
 number of electron      18.0000005 magnetization 
 augmentation part       18.0000005 magnetization 

 Free energy of the ion-electron system (eV)
  ---------------------------------------------------
  alpha Z        PSCENC =       115.92183730
  Ewald energy   TEWEN  =     -1823.56586453
  -Hartree energ DENC   =      -393.66701707
  -exchange      EXHF   =         0.00000000
  -V(xc)+E(xc)   XCENC  =        92.30260291
  PAW double counting   =      3425.40895347    -3443.49507144
  entropy T*S    EENTRO =        -0.00139841
  eigenvalues    EBANDS =      -201.19470927
  atomic energy  EATOM  =      2211.68932980
  Solvation  Ediel_sol  =         0.00000000
  ---------------------------------------------------
  free energy    TOTEN  =       -16.60133723 eV

  energy without entropy =      -16.59993882  energy(sigma->0) =      -16.60063803


--------------------------------------------------------------------------------------------------------




----------------------------------------- Iteration    1(   4)  ---------------------------------------


    EDDIAG:  cpu time    6.8877: real time    2.3595
  RMM-DIIS:  cpu time   24.3445: real time    8.2156
    ORTHCH:  cpu time    0.1052: real time    0.0371
       DOS:  cpu time    0.0370: real time    0.0104
    --------------------------------------------
      LOOP:  cpu time   31.3862: real time   10.6283

 eigenvalue-minimisations  : 20037
 total energy-change (2. order) :-0.6764845E-01  (-0.4463479E-01)
 number of electron      18.0000005 magnetization 
 augmentation part       18.0000005 magnetization 

 Free energy of the ion-electron system (eV)
  ---------------------------------------------------
  alpha Z        PSCENC =       115.92183730
  Ewald energy   TEWEN  =     -1823.56586453
  -Hartree energ DENC   =      -393.66701707
  -exchange      EXHF   =         0.00000000
  -V(xc)+E(xc)   XCENC  =        92.30260291
  PAW double counting   =      3425.40895347    -3443.49507144
  entropy T*S    EENTRO =        -0.00139692
  eigenvalues    EBANDS =      -201.26235920
  atomic energy  EATOM  =      2211.68932980
  Solvation  Ediel_sol  =         0.00000000
  ---------------------------------------------------
  free energy    TOTEN  =       -16.66898568 eV

  energy without entropy =      -16.66758876  energy(sigma->0) =      -16.66828722


--------------------------------------------------------------------------------------------------------




----------------------------------------- Iteration    1(   5)  ---------------------------------------


    EDDIAG:  cpu time    6.5858: real time    2.2058
  RMM-DIIS:  cpu time   28.5014: real time    9.5561
    ORTHCH:  cpu time    0.1076: real time    0.0366
       DOS:  cpu time    0.0325: real time    0.0101
    --------------------------------------------
      LOOP:  cpu time   35.2394: real time   11.8144

 eigenvalue-minimisations  : 24246
 total energy-change (2. order) :-0.1642452E-02  (-0.1050023E-02)
 number of electron      18.0000005 magnetization 
 augmentation part       18.0000005 magnetization 

 Free energy of the ion-electron system (eV)
  ---------------------------------------------------
  alpha Z        PSCENC =       115.92183730
  Ewald energy   TEWEN  =     -1823.56586453
  -Hartree energ DENC   =      -393.66701707
  -exchange      EXHF   =         0.00000000
  -V(xc)+E(xc)   XCENC  =        92.30260291
  PAW double counting   =      3425.40895347    -3443.49507144
  entropy T*S    EENTRO =        -0.00139688
  eigenvalues    EBANDS =      -201.26400170
  atomic energy  EATOM  =      2211.68932980
  Solvation  Ediel_sol  =         0.00000000
  ---------------------------------------------------
  free energy    TOTEN  =       -16.67062813 eV

  energy without entropy =      -16.66923126  energy(sigma->0) =      -16.66992970


--------------------------------------------------------------------------------------------------------




----------------------------------------- Iteration    1(   6)  ---------------------------------------


    EDDIAG:  cpu time    6.5045: real time    2.1760
  RMM-DIIS:  cpu time   28.6720: real time    9.7001
    ORTHCH:  cpu time    0.1110: real time    0.0386
       DOS:  cpu time    0.0360: real time    0.0106
    --------------------------------------------
      LOOP:  cpu time   35.3356: real time   11.9311

 eigenvalue-minimisations  : 23128
 total energy-change (2. order) :-0.5999540E-04  (-0.4016749E-04)
 number of electron      18.0000005 magnetization 
 augmentation part       18.0000005 magnetization 

 Free energy of the ion-electron system (eV)
  ---------------------------------------------------
  alpha Z        PSCENC =       115.92183730
  Ewald energy   TEWEN  =     -1823.56586453
  -Hartree energ DENC   =      -393.66701707
  -exchange      EXHF   =         0.00000000
  -V(xc)+E(xc)   XCENC  =        92.30260291
  PAW double counting   =      3425.40895347    -3443.49507144
  entropy T*S    EENTRO =        -0.00139688
  eigenvalues    EBANDS =      -201.26406169
  atomic energy  EATOM  =      2211.68932980
  Solvation  Ediel_sol  =         0.00000000
  ---------------------------------------------------
  free energy    TOTEN  =       -16.67068813 eV

  energy without entropy =      -16.66929125  energy(sigma->0) =      -16.66998969


--------------------------------------------------------------------------------------------------------




----------------------------------------- Iteration    1(   7)  ---------------------------------------


    EDDIAG:  cpu time    6.9647: real time    2.3469
  RMM-DIIS:  cpu time   30.3382: real time   10.2862
    ORTHCH:  cpu time    0.1100: real time    0.0371
       DOS:  cpu time    0.0284: real time    0.0091
    --------------------------------------------
      LOOP:  cpu time   37.4538: real time   12.6851

 eigenvalue-minimisations  : 23858
 total energy-change (2. order) :-0.3022589E-05  (-0.1747690E-05)
 number of electron      18.0000005 magnetization 
 augmentation part       18.0000005 magnetization 

 Free energy of the ion-electron system (eV)
  ---------------------------------------------------
  alpha Z        PSCENC =       115.92183730
  Ewald energy   TEWEN  =     -1823.56586453
  -Hartree energ DENC   =      -393.66701707
  -exchange      EXHF   =         0.00000000
  -V(xc)+E(xc)   XCENC  =        92.30260291
  PAW double counting   =      3425.40895347    -3443.49507144
  entropy T*S    EENTRO =        -0.00139688
  eigenvalues    EBANDS =      -201.26406471
  atomic energy  EATOM  =      2211.68932980
  Solvation  Ediel_sol  =         0.00000000
  ---------------------------------------------------
  free energy    TOTEN  =       -16.67069115 eV

  energy without entropy =      -16.66929427  energy(sigma->0) =      -16.66999271


--------------------------------------------------------------------------------------------------------




----------------------------------------- Iteration    1(   8)  ---------------------------------------


    EDDIAG:  cpu time    6.5282: real time    2.1836
  RMM-DIIS:  cpu time   23.5467: real time    7.8712
    ORTHCH:  cpu time    0.1045: real time    0.0374
       DOS:  cpu time    0.0372: real time    0.0099
    --------------------------------------------
      LOOP:  cpu time   30.2290: real time   10.1080

 eigenvalue-minimisations  : 19295
 total energy-change (2. order) :-0.1316412E-06  (-0.8915555E-07)
 number of electron      18.0000005 magnetization 
 augmentation part       18.0000005 magnetization 

 Free energy of the ion-electron system (eV)
  ---------------------------------------------------
  alpha Z        PSCENC =       115.92183730
  Ewald energy   TEWEN  =     -1823.56586453
  -Hartree energ DENC   =      -393.66701707
  -exchange      EXHF   =         0.00000000
  -V(xc)+E(xc)   XCENC  =        92.30260291
  PAW double counting   =      3425.40895347    -3443.49507144
  entropy T*S    EENTRO =        -0.00139688
  eigenvalues    EBANDS =      -201.26406485
  atomic energy  EATOM  =      2211.68932980
  Solvation  Ediel_sol  =         0.00000000
  ---------------------------------------------------
  free energy    TOTEN  =       -16.67069128 eV

  energy without entropy =      -16.66929441  energy(sigma->0) =      -16.66999284


--------------------------------------------------------------------------------------------------------




 average (electrostatic) potential at core
  the test charge radii are     0.9956  0.9051
  (the norm of the test charge is              1.0000)
       1 -68.4373       2 -68.8326
 
 
 
 E-fermi :  11.8170     XC(G=0): -14.0209     alpha+bet :-20.5016


 k-point     1 :       0.0000    0.0000    0.0000
  band No.  band energies     occupation 
      1     -52.2289      2.00000
      2     -26.0274      2.00000
      3     -26.0274      2.00000
      4     -26.0274      2.00000
      5      -5.3529      2.00000
      6      10.5375      2.00000
      7      10.5375      2.00000
      8      10.5375      2.00000
      9      11.1815      2.00000
     10      11.1815      2.00000
     11      11.1815      2.00000
     12      12.3019      0.00000
     13      12.3019      0.00000
     14      19.2316      0.00000
     15      26.7224      0.00000
     16      33.1133      0.00000
     17      33.1133      0.00000
     18      33.1133      0.00000
     19      41.0230      0.00000
     20      41.0230      0.00000
     21      41.6906      0.00000
     22      41.6906      0.00000
     23      41.6906      0.00000
     24      50.2114      0.00000
     25      50.2114      0.00000
     26      50.2114      0.00000
     27      57.1845      0.00000
     28      62.4920      0.00000
     29      62.4920      0.00000
     30      62.4920      0.00000
     31      67.7794      0.00000
     32      67.7794      0.00000
     33      72.0211      0.00000
     34      72.0211      0.00000
     35      72.0211      0.00000
     36      82.3864      0.00000
     37      85.7680      0.00000
     38      85.8750      0.00000
     39      86.1477      0.00000
     40      87.7403      0.00000
     41      89.8377      0.00000
     42      90.1426      0.00000
     43      91.3956      0.00000
     44      91.9579      0.00000
     45      92.0750      0.00000
     46      92.6322      0.00000
     47      92.9327      0.00000
     48      94.1966      0.00000
     49      96.7591      0.00000
     50      97.1654      0.00000

 k-point     2 :       0.0000    0.0128    0.0128
  band No.  band energies     occupation 
      1     -52.2287      2.00000
      2     -26.0283      2.00000
      3     -26.0277      2.00000
      4     -26.0277      2.00000
      5      -5.3481      2.00000
      6      10.4696      2.00000
      7      10.5027      2.00000
      8      10.5027      2.00000
      9      11.1765      2.00000
     10      11.2207      2.00000
     11      11.2207      2.00000
     12      12.3035      0.00000
     13      12.3655      0.00000
     14      19.2436      0.00000
     15      26.7234      0.00000
     16      33.0986      0.00000
     17      33.0986      0.00000
     18      33.1290      0.00000
     19      40.6598      0.00000
     20      41.0224      0.00000
     21      41.7139      0.00000
     22      41.7139      0.00000
     23      42.0412      0.00000
     24      50.1954      0.00000
     25      50.2056      0.00000
     26      50.2056      0.00000
     27      57.2102      0.00000
     28      62.3910      0.00000
     29      62.4846      0.00000
     30      62.4846      0.00000
     31      67.7955      0.00000
     32      67.8923      0.00000
     33      72.0166      0.00000
     34      72.0240      0.00000
     35      72.0240      0.00000
     36      82.3762      0.00000
     37      85.7455      0.00000
     38      85.8243      0.00000
     39      85.8364      0.00000
     40      87.7999      0.00000
     41      89.5809      0.00000
     42      89.8631      0.00000
     43      90.4875      0.00000
     44      91.9972      0.00000
     45      91.9858      0.00000
     46      92.3330      0.00000
     47      92.8283      0.00000
     48      94.1826      0.00000
     49      95.9693      0.00000
     50      97.5259      0.00000

 k-point     3 :       0.0000    0.0256    0.0256
  band No.  band energies     occupation 
      1     -52.2281      2.00000
      2     -26.0311      2.00000
      3     -26.0287      2.00000
      4     -26.0287      2.00000
      5      -5.3336      2.00000
      6      10.2902      2.00000
      7      10.4168      2.00000
      8      10.4168      2.00000
      9      11.1615      2.00000
     10      11.3202      2.00000
     11      11.3202      2.00000
     12      12.3082      0.00000
     13      12.5323      0.00000
     14      19.2796      0.00000
     15      26.7264      0.00000
     16      33.0554      0.00000
     17      33.0554      0.00000
     18      33.1760      0.00000
     19      40.0795      0.00000
     20      41.0206      0.00000
     21      41.7832      0.00000
     22      41.7832      0.00000
     23      42.5836      0.00000
     24      50.1481      0.00000
     25      50.1883      0.00000
     26      50.1883      0.00000
     27      57.2868      0.00000
     28      62.1108      0.00000
     29      62.4627      0.00000
     30      62.4627      0.00000
     31      67.8435      0.00000
     32      68.2084      0.00000
     33      72.0029      0.00000
     34      72.0321      0.00000
     35      72.0321      0.00000
     36      82.3950      0.00000
     37      85.4891      0.00000
     38      85.5700      0.00000
     39      86.1686      0.00000
     40      87.4827      0.00000
     41      89.2949      0.00000
     42      89.5223      0.00000
     43      90.2996      0.00000
     44      91.6517      0.00000
     45      91.7395      0.00000
     46      92.0469      0.00000
     47      92.8494      0.00000
     48      93.6425      0.00000
     49      94.2934      0.00000
     50      97.2540      0.00000

 k-point     4 :       0.0000    0.0385    0.0385
  band No.  band energies     occupation 
      1     -52.2272      2.00000
      2     -26.0357      2.00000
      3     -26.0302      2.00000
      4     -26.0302      2.00000
      5      -5.3095      2.00000
      6      10.0424      2.00000
      7      10.3068      2.00000
      8      10.3068      2.00000
      9      11.1368      2.00000
     10      11.4526      2.00000
     11      11.4526      2.00000
     12      12.3160      0.00000
     13      12.7588      0.00000
     14      19.3395      0.00000
     15      26.7312      0.00000
     16      32.9855      0.00000
     17      32.9855      0.00000
     18      33.2543      0.00000
     19      39.4653      0.00000
     20      41.0176      0.00000
     21      41.8967      0.00000
     22      41.8967      0.00000
     23      43.1334      0.00000
     24      50.0722      0.00000
     25      50.1593      0.00000
     26      50.1593      0.00000
     27      57.4134      0.00000
     28      61.7003      0.00000
     29      62.4264      0.00000
     30      62.4264      0.00000
     31      67.9215      0.00000
     32      68.6780      0.00000
     33      71.9797      0.00000
     34      72.0399      0.00000
     35      72.0399      0.00000
     36      82.3123      0.00000
     37      85.1448      0.00000
     38      85.2407      0.00000
     39      86.1231      0.00000
     40      87.3926      0.00000
     41      88.6282      0.00000
     42      89.0294      0.00000
     43      90.1748      0.00000
     44      91.1690      0.00000
     45      91.4980      0.00000
     46      91.8666      0.00000
     47      92.6527      0.00000
     48      93.6779      0.00000
     49      94.2847      0.00000
     50      96.3326      0.00000

 k-point     5 :       0.0000    0.0513    0.0513
  band No.  band energies     occupation 
      1     -52.2259      2.00000
      2     -26.0420      2.00000
      3     -26.0323      2.00000
      4     -26.0323      2.00000
      5      -5.2762      2.00000
      6       9.7581      2.00000
      7      10.1883      2.00000
      8      10.1883      2.00000
      9      11.1026      2.00000
     10      11.6020      2.00000
     11      11.6020      2.00000
     12      12.3269      0.00000
     13      13.0132      0.00000
     14      19.4232      0.00000
     15      26.7379      0.00000
     16      32.8920      0.00000
     17      32.8920      0.00000
     18      33.3636      0.00000
     19      38.8388      0.00000
     20      41.0135      0.00000
     21      42.0516      0.00000
     22      42.0516      0.00000
     23      43.6690      0.00000
     24      49.9717      0.00000
     25      50.1186      0.00000
     26      50.1186      0.00000
     27      57.5882      0.00000
     28      61.2070      0.00000
     29      62.3765      0.00000
     30      62.3765      0.00000
     31      68.0305      0.00000
     32      69.2544      0.00000
     33      71.9477      0.00000
     34      72.0508      0.00000
     35      72.0508      0.00000
     36      82.3574      0.00000
     37      84.6807      0.00000
     38      84.7669      0.00000
     39      85.9647      0.00000
     40      87.2512      0.00000
     41      87.9912      0.00000
     42      88.0232      0.00000
     43      90.4301      0.00000
     44      90.7305      0.00000
     45      91.0412      0.00000
     46      91.7336      0.00000
     47      92.3716      0.00000
     48      93.8587      0.00000
     49      94.3690      0.00000
     50      97.8618      0.00000

 k-point     6 :       0.0000    0.0641    0.0641
  band No.  band energies     occupation 
      1     -52.2242      2.00000
      2     -26.0500      2.00000
      3     -26.0351      2.00000
      4     -26.0351      2.00000
      5      -5.2338      2.00000
      6       9.4554      2.00000
      7      10.0686      2.00000
      8      10.0686      2.00000
      9      11.0593      2.00000
     10      11.7608      1.88846
     11      11.7608      1.88846
     12      12.3408      0.00000
     13      13.2773      0.00000
     14      19.5303      0.00000
     15      26.7462      0.00000
     16      32.7784      0.00000
     17      32.7784      0.00000
     18      33.5036      0.00000
     19      38.2059      0.00000
     20      41.0077      0.00000
     21      42.2445      0.00000
     22      42.2445      0.00000
     23      44.1824      0.00000
     24      49.8519      0.00000
     25      50.0659      0.00000
     26      50.0659      0.00000
     27      57.8093      0.00000
     28      60.6641      0.00000
     29      62.3135      0.00000
     30      62.3135      0.00000
     31      68.1676      0.00000
     32      69.9024      0.00000
     33      71.9052      0.00000
     34      72.0540      0.00000
     35      72.0540      0.00000
     36      82.2110      0.00000
     37      84.1530      0.00000
     38      84.4427      0.00000
     39      86.4519      0.00000
     40      86.6260      0.00000
     41      87.4546      0.00000
     42      88.4153      0.00000
     43      90.3751      0.00000
     44      90.6644      0.00000
     45      91.3665      0.00000
     46      91.5880      0.00000
     47      93.7363      0.00000
     48      93.9746      0.00000
     49      96.7149      0.00000
     50      98.6662      0.00000

 k-point     7 :       0.0000    0.0769    0.0769
  band No.  band energies     occupation 
      1     -52.2221      2.00000
      2     -26.0596      2.00000
      3     -26.0384      2.00000
      4     -26.0384      2.00000
      5      -5.1829      2.00000
      6       9.1447      2.00000
      7       9.9511      2.00000
      8       9.9511      2.00000
      9      11.0075      2.00000
     10      11.9250      0.00226
     11      11.9250      0.00226
     12      12.3576      0.00000
     13      13.5407      0.00000
     14      19.6605      0.00000
     15      26.7561      0.00000
     16      32.6489      0.00000
     17      32.6489      0.00000
     18      33.6739      0.00000
     19      37.5700      0.00000
     20      41.0016      0.00000
     21      42.4715      0.00000
     22      42.4715      0.00000
     23      44.6681      0.00000
     24      49.7190      0.00000
     25      50.0013      0.00000
     26      50.0013      0.00000
     27      58.0746      0.00000
     28      60.0942      0.00000
     29      62.2385      0.00000
     30      62.2385      0.00000
     31      68.3308      0.00000
     32      70.6021      0.00000
     33      71.8540      0.00000
     34      72.0490      0.00000
     35      72.0490      0.00000
     36      82.1246      0.00000
     37      83.5369      0.00000
     38      83.5824      0.00000
     39      86.1781      0.00000
     40      86.3539      0.00000
     41      87.0767      0.00000
     42      87.3031      0.00000
     43      90.0170      0.00000
     44      90.2783      0.00000
     45      90.5691      0.00000
     46      91.4729      0.00000
     47      91.7160      0.00000
     48      93.9530      0.00000
     49      96.1073      0.00000
     50     100.1353      0.00000

 k-point     8 :       0.0000    0.0897    0.0897
  band No.  band energies     occupation 
      1     -52.2197      2.00000
      2     -26.0708      2.00000
      3     -26.0422      2.00000
      4     -26.0422      2.00000
      5      -5.1238      2.00000
      6       8.8322      2.00000
      7       9.8380      2.00000
      8       9.8380      2.00000
      9      10.9477      2.00000
     10      12.0921      0.00000
     11      12.0921      0.00000
     12      12.3773      0.00000
     13      13.7974      0.00000
     14      19.8128      0.00000
     15      26.7674      0.00000
     16      32.5078      0.00000
     17      32.5078      0.00000
     18      33.8741      0.00000
     19      36.9336      0.00000
     20      40.9944      0.00000
     21      42.7290      0.00000
     22      42.7290      0.00000
     23      45.1207      0.00000
     24      49.5805      0.00000
     25      49.9244      0.00000
     26      49.9244      0.00000
     27      58.3820      0.00000
     28      59.5109      0.00000
     29      62.1521      0.00000
     30      62.1522      0.00000
     31      68.5179      0.00000
     32      71.3382      0.00000
     33      71.7925      0.00000
     34      72.0259      0.00000
     35      72.0260      0.00000
     36      82.0503      0.00000
     37      82.9310      0.00000
     38      82.9374      0.00000
     39      85.7424      0.00000
     40      86.3668      0.00000
     41      86.6502      0.00000
     42      86.7222      0.00000
     43      89.7681      0.00000
     44      90.1240      0.00000
     45      90.9640      0.00000
     46      91.3488      0.00000
     47      91.6674      0.00000
     48      93.8239      0.00000
     49      95.6260      0.00000
     50     100.7314      0.00000

 k-point     9 :       0.0000    0.1026    0.1026
  band No.  band energies     occupation 
      1     -52.2170      2.00000
      2     -26.0834      2.00000
      3     -26.0465      2.00000
      4     -26.0465      2.00000
      5      -5.0571      2.00000
      6       8.5224      2.00000
      7       9.7301      2.00000
      8       9.7301      2.00000
      9      10.8806      2.00000
     10      12.2603      0.00000
     11      12.2603      0.00000
     12      12.3997      0.00000
     13      14.0435      0.00000
     14      19.9860      0.00000
     15      26.7799      0.00000
     16      32.3593      0.00000
     17      32.3593      0.00000
     18      34.1036      0.00000
     19      36.2986      0.00000
     20      40.9863      0.00000
     21      43.0131      0.00000
     22      43.0131      0.00000
     23      45.5345      0.00000
     24      49.4449      0.00000
     25      49.8351      0.00000
     26      49.8351      0.00000
     27      58.7293      0.00000
     28      58.9228      0.00000
     29      62.0553      0.00000
[...]
     50     102.7068      0.00000

 k-point   155 :       0.4359    0.4359    0.4359
  band No.  band energies     occupation 
      1     -52.1429      2.00000
      2     -26.5832      2.00000
      3     -26.0783      2.00000
      4     -26.0783      2.00000
      5      -2.5776      2.00000
      6       3.8382      2.00000
      7       6.5578      2.00000
      8       6.5578      2.00000
      9      13.3571      0.00000
     10      13.3571      0.00000
     11      14.1940      0.00000
     12      17.9115      0.00000
     13      17.9115      0.00000
     14      19.4096      0.00000
     15      27.1966      0.00000
     16      28.0777      0.00000
     17      28.0777      0.00000
     18      37.4718      0.00000
     19      39.6682      0.00000
     20      39.6682      0.00000
     21      41.3552      0.00000
     22      42.6037      0.00000
     23      42.6037      0.00000
     24      51.2220      0.00000
     25      55.2923      0.00000
     26      55.2923      0.00000
     27      58.6610      0.00000
     28      59.2688      0.00000
     29      59.2688      0.00000
     30      65.2280      0.00000
     31      65.2280      0.00000
     32      66.0867      0.00000
     33      67.5934      0.00000
     34      69.7601      0.00000
     35      69.7601      0.00000
     36      74.0033      0.00000
     37      75.2964      0.00000
     38      80.5701      0.00000
     39      81.8195      0.00000
     40      81.8218      0.00000
     41      85.2514      0.00000
     42      85.4166      0.00000
     43      85.4240      0.00000
     44      89.4292      0.00000
     45      89.6974      0.00000
     46      89.7697      0.00000
     47      92.6887      0.00000
     48      92.7284      0.00000
     49      94.7149      0.00000
     50     101.8344      0.00000

 k-point   156 :       0.4487    0.4487    0.4487
  band No.  band energies     occupation 
      1     -52.1416      2.00000
      2     -26.5912      2.00000
      3     -26.0790      2.00000
      4     -26.0790      2.00000
      5      -2.5164      2.00000
      6       3.7485      2.00000
      7       6.5270      2.00000
      8       6.5270      2.00000
      9      13.3942      0.00000
     10      13.3942      0.00000
     11      14.2625      0.00000
     12      17.9752      0.00000
     13      17.9752      0.00000
     14      19.3054      0.00000
     15      27.2714      0.00000
     16      27.9850      0.00000
     17      27.9850      0.00000
     18      37.5914      0.00000
     19      39.9150      0.00000
     20      39.9150      0.00000
     21      41.1997      0.00000
     22      42.2768      0.00000
     23      42.2768      0.00000
     24      51.7109      0.00000
     25      55.5659      0.00000
     26      55.5659      0.00000
     27      58.0253      0.00000
     28      59.3048      0.00000
     29      59.3048      0.00000
     30      64.9097      0.00000
     31      64.9097      0.00000
     32      66.1887      0.00000
     33      67.6476      0.00000
     34      69.7206      0.00000
     35      69.7206      0.00000
     36      73.8223      0.00000
     37      75.6560      0.00000
     38      80.2937      0.00000
     39      81.8016      0.00000
     40      81.8060      0.00000
     41      85.3499      0.00000
     42      85.3535      0.00000
     43      85.3967      0.00000
     44      89.3140      0.00000
     45      90.1795      0.00000
     46      90.3966      0.00000
     47      92.5205      0.00000
     48      92.7506      0.00000
     49      96.0223      0.00000
     50     112.5065      0.00000

 k-point   157 :       0.4615    0.4615    0.4615
  band No.  band energies     occupation 
      1     -52.1406      2.00000
      2     -26.5974      2.00000
      3     -26.0797      2.00000
      4     -26.0797      2.00000
      5      -2.4675      2.00000
      6       3.6774      2.00000
      7       6.5029      2.00000
      8       6.5029      2.00000
      9      13.4235      0.00000
     10      13.4235      0.00000
     11      14.3187      0.00000
     12      18.0251      0.00000
     13      18.0251      0.00000
     14      19.2204      0.00000
     15      27.3316      0.00000
     16      27.9117      0.00000
     17      27.9117      0.00000
     18      37.6898      0.00000
     19      40.1706      0.00000
     20      40.1706      0.00000
     21      41.0714      0.00000
     22      41.9582      0.00000
     23      41.9582      0.00000
     24      52.1803      0.00000
     25      55.7932      0.00000
     26      55.7932      0.00000
     27      57.4412      0.00000
     28      59.3325      0.00000
     29      59.3325      0.00000
     30      64.6469      0.00000
     31      64.6469      0.00000
     32      66.2714      0.00000
     33      67.6849      0.00000
     34      69.6893      0.00000
     35      69.6893      0.00000
     36      73.6772      0.00000
     37      75.9906      0.00000
     38      80.0311      0.00000
     39      81.7878      0.00000
     40      81.7904      0.00000
     41      85.3045      0.00000
     42      85.3042      0.00000
     43      85.5422      0.00000
     44      89.1048      0.00000
     45      90.6102      0.00000
     46      90.7164      0.00000
     47      92.3903      0.00000
     48      92.4554      0.00000
     49      98.0832      0.00000
     50     106.5216      0.00000

 k-point   158 :       0.4744    0.4744    0.4744
  band No.  band energies     occupation 
      1     -52.1399      2.00000
      2     -26.6019      2.00000
      3     -26.0801      2.00000
      4     -26.0801      2.00000
      5      -2.4317      2.00000
      6       3.6258      2.00000
      7       6.4857      2.00000
      8       6.4857      2.00000
      9      13.4446      0.00000
     10      13.4446      0.00000
     11      14.3604      0.00000
     12      18.0612      0.00000
     13      18.0612      0.00000
     14      19.1576      0.00000
     15      27.3756      0.00000
     16      27.8590      0.00000
     17      27.8590      0.00000
     18      37.7636      0.00000
     19      40.4331      0.00000
     20      40.4331      0.00000
     21      40.9751      0.00000
     22      41.6508      0.00000
     23      41.6508      0.00000
     24      52.5973      0.00000
     25      55.9648      0.00000
     26      55.9648      0.00000
     27      56.9422      0.00000
     28      59.3522      0.00000
     29      59.3522      0.00000
     30      64.4501      0.00000
     31      64.4501      0.00000
     32      66.3331      0.00000
     33      67.7096      0.00000
     34      69.6685      0.00000
     35      69.6685      0.00000
     36      73.5717      0.00000
     37      76.2742      0.00000
     38      79.8391      0.00000
     39      81.7789      0.00000
     40      81.8127      0.00000
     41      85.2540      0.00000
     42      85.2997      0.00000
     43      85.6545      0.00000
     44      89.1054      0.00000
     45      90.9677      0.00000
     46      91.4943      0.00000
     47      92.2154      0.00000
     48      92.1335      0.00000
     49      96.3727      0.00000
     50     103.1475      0.00000

 k-point   159 :       0.4872    0.4872    0.4872
  band No.  band energies     occupation 
      1     -52.1395      2.00000
      2     -26.6046      2.00000
      3     -26.0803      2.00000
      4     -26.0803      2.00000
      5      -2.4099      2.00000
      6       3.5945      2.00000
      7       6.4754      2.00000
      8       6.4754      2.00000
      9      13.4574      0.00000
     10      13.4574      0.00000
     11      14.3862      0.00000
     12      18.0829      0.00000
     13      18.0829      0.00000
     14      19.1189      0.00000
     15      27.4024      0.00000
     16      27.8272      0.00000
     17      27.8272      0.00000
     18      37.8096      0.00000
     19      40.6925      0.00000
     20      40.6925      0.00000
     21      40.9151      0.00000
     22      41.3641      0.00000
     23      41.3641      0.00000
     24      52.9026      0.00000
     25      56.0720      0.00000
     26      56.0720      0.00000
     27      56.5861      0.00000
     28      59.3637      0.00000
     29      59.3637      0.00000
     30      64.3277      0.00000
     31      64.3277      0.00000
     32      66.3709      0.00000
     33      67.7221      0.00000
     34      69.6563      0.00000
     35      69.6563      0.00000
     36      73.5075      0.00000
     37      76.4688      0.00000
     38      79.6467      0.00000
     39      81.7731      0.00000
     40      81.7764      0.00000
     41      85.2193      0.00000
     42      85.2281      0.00000
     43      85.6354      0.00000
     44      88.9106      0.00000
     45      91.2148      0.00000
     46      91.2845      0.00000
     47      92.1128      0.00000
     48      92.1732      0.00000
     49      92.6396      0.00000
     50     101.8697      0.00000

 k-point   160 :       0.5000    0.5000    0.5000
  band No.  band energies     occupation 
      1     -52.1393      2.00000
      2     -26.6055      2.00000
      3     -26.0804      2.00000
      4     -26.0804      2.00000
      5      -2.4026      2.00000
      6       3.5840      2.00000
      7       6.4720      2.00000
      8       6.4720      2.00000
      9      13.4617      0.00000
     10      13.4617      0.00000
     11      14.3949      0.00000
     12      18.0902      0.00000
     13      18.0902      0.00000
     14      19.1059      0.00000
     15      27.4114      0.00000
     16      27.8165      0.00000
     17      27.8165      0.00000
     18      37.8252      0.00000
     19      40.8606      0.00000
     20      40.8606      0.00000
     21      40.8947      0.00000
     22      41.1870      0.00000
     23      41.1870      0.00000
     24      53.0192      0.00000
     25      56.1085      0.00000
     26      56.1085      0.00000
     27      56.4530      0.00000
     28      59.3676      0.00000
     29      59.3676      0.00000
     30      64.2862      0.00000
     31      64.2862      0.00000
     32      66.3837      0.00000
     33      67.7266      0.00000
     34      69.6522      0.00000
     35      69.6522      0.00000
     36      73.4859      0.00000
     37      76.5394      0.00000
     38      79.5891      0.00000
     39      81.7733      0.00000
     40      81.7913      0.00000
     41      85.2197      0.00000
     42      85.3162      0.00000
     43      85.7201      0.00000
     44      88.8947      0.00000
     45      91.3078      0.00000
     46      91.4758      0.00000
     47      92.0909      0.00000
     48      92.3377      0.00000
     49      92.9005      0.00000
     50     100.9114      0.00000


--------------------------------------------------------------------------------------------------------


 soft charge-density along one line, spin component           1
         0         1         2         3         4         5         6         7         8         9
 total charge-density along one line
 
 pseudopotential strength for first ion, spin component:           1
-18.220  10.258  -0.000  -0.000   0.000   0.000   0.000  -0.000
 10.258   3.241   0.000   0.000  -0.000  -0.000  -0.000   0.000
 -0.000   0.000 -26.709   0.000   0.000   6.965  -0.000  -0.000
 -0.000   0.000   0.000 -26.709   0.000  -0.000   6.965  -0.000
  0.000  -0.000   0.000   0.000 -26.709  -0.000  -0.000   6.965
  0.000  -0.000   6.965  -0.000  -0.000   6.030   0.000   0.000
  0.000  -0.000  -0.000   6.965  -0.000   0.000   6.030   0.000
 -0.000   0.000  -0.000  -0.000   6.965   0.000   0.000   6.030
  0.000  -0.000   0.000   0.000  -0.000  -0.000  -0.000   0.000
  0.000  -0.000  -0.000  -0.000   0.000   0.000   0.000  -0.000
  0.000  -0.000   0.000  -0.000  -0.000  -0.000   0.000   0.000
  0.000  -0.000   0.000   0.000  -0.000  -0.000  -0.000   0.000
 -0.000   0.000   0.000  -0.000   0.000  -0.000   0.000  -0.000
  0.000  -0.000   0.000   0.000  -0.000  -0.000  -0.000   0.000
  0.000  -0.000  -0.000  -0.000   0.000   0.000   0.000  -0.000
  0.000  -0.000   0.000  -0.000  -0.000  -0.000   0.000   0.000
  0.000  -0.000   0.000   0.000  -0.000  -0.000  -0.000   0.000
 -0.000   0.000   0.000  -0.000   0.000  -0.000   0.000  -0.000
 total augmentation occupancy for first ion, spin component:           1
  2.000   0.000   0.000   0.000   0.000   0.000   0.000   0.000   0.000   0.000   0.000   0.000   0.000   0.000   0.000   0.000
  0.000   1.000   0.000   0.000   0.000   0.000   0.000   0.000   0.000   0.000   0.000   0.000   0.000   0.000   0.000   0.000
  0.000   0.000   2.000   0.000   0.000   0.000   0.000   0.000   0.000   0.000   0.000   0.000   0.000   0.000   0.000   0.000
  0.000   0.000   0.000   2.000   0.000   0.000   0.000   0.000   0.000   0.000   0.000   0.000   0.000   0.000   0.000   0.000
  0.000   0.000   0.000   0.000   2.000   0.000   0.000   0.000   0.000   0.000   0.000   0.000   0.000   0.000   0.000   0.000
  0.000   0.000   0.000   0.000   0.000   0.000   0.000   0.000   0.000   0.000   0.000   0.000   0.000   0.000   0.000   0.000
  0.000   0.000   0.000   0.000   0.000   0.000   0.000   0.000   0.000   0.000   0.000   0.000   0.000   0.000   0.000   0.000
  0.000   0.000   0.000   0.000   0.000   0.000   0.000   0.000   0.000   0.000   0.000   0.000   0.000   0.000   0.000   0.000
  0.000   0.000   0.000   0.000   0.000   0.000   0.000   0.000   0.800   0.000   0.000   0.000   0.000   0.000   0.000   0.000
  0.000   0.000   0.000   0.000   0.000   0.000   0.000   0.000   0.000   0.800   0.000   0.000   0.000   0.000   0.000   0.000
  0.000   0.000   0.000   0.000   0.000   0.000   0.000   0.000   0.000   0.000   0.800   0.000   0.000   0.000   0.000   0.000
  0.000   0.000   0.000   0.000   0.000   0.000   0.000   0.000   0.000   0.000   0.000   0.800   0.000   0.000   0.000   0.000
  0.000   0.000   0.000   0.000   0.000   0.000   0.000   0.000   0.000   0.000   0.000   0.000   0.800   0.000   0.000   0.000
  0.000   0.000   0.000   0.000   0.000   0.000   0.000   0.000   0.000   0.000   0.000   0.000   0.000   0.000   0.000   0.000
  0.000   0.000   0.000   0.000   0.000   0.000   0.000   0.000   0.000   0.000   0.000   0.000   0.000   0.000   0.000   0.000
  0.000   0.000   0.000   0.000   0.000   0.000   0.000   0.000   0.000   0.000   0.000   0.000   0.000   0.000   0.000   0.000
  0.000   0.000   0.000   0.000   0.000   0.000   0.000   0.000   0.000   0.000   0.000   0.000   0.000   0.000   0.000   0.000
  0.000   0.000   0.000   0.000   0.000   0.000   0.000   0.000   0.000   0.000   0.000   0.000   0.000   0.000   0.000   0.000


------------------------ aborting loop because EDIFF is reached ----------------------------------------


    CHARGE:  cpu time    0.5398: real time    0.2376
    FORLOC:  cpu time    0.0030: real time    0.0030
    FORNL :  cpu time    0.5369: real time    0.5378
    STRESS:  cpu time    2.1070: real time    0.7384
    FORCOR:  cpu time    0.2751: real time    0.0920
    FORHAR:  cpu time    0.0266: real time    0.0089
    OFIELD:  cpu time    0.0002: real time    0.0001

  FORCE on cell =-STRESS in cart. coord.  units (eV):
  Direction    XX          YY          ZZ          XY          YZ          ZX
  --------------------------------------------------------------------------------------
  Alpha Z   115.92184   115.92184   115.92184
  Ewald    -607.85544  -607.85544  -607.85544     0.00000     0.00000     0.00000
  Hartree   126.86002   126.86002   126.86002     0.00000     0.00000     0.00000
  E(xc)     -92.88863   -92.88863   -92.88863     0.00000     0.00000     0.00000
  Local     107.71326   107.71326   107.71326    -0.00000    -0.00000    -0.00000
  n-local   -17.49560   -19.33412   -19.33413    -0.87123    -2.01423    -0.87123
  augment    91.71211    91.71211    91.71211     0.00000     0.00000     0.00000
  Kinetic   265.72382   280.65715   280.65715    -1.69454    -3.24682    -1.69454
  Fock        0.00000     0.00000     0.00000     0.00000     0.00000     0.00000
  -------------------------------------------------------------------------------------
  Total      -1.57874    -1.57874    -1.57874    -0.00000    -0.00000    -0.00000
  in kB    -149.94438  -149.94438  -149.94438    -0.00000    -0.00000    -0.00000
  external pressure =     -149.94 kB  Pullay stress =        0.00 kB


 VOLUME and BASIS-vectors are now :
 -----------------------------------------------------------------------------
  energy-cutoff  :      500.00
  volume of cell :       16.87
      direct lattice vectors                 reciprocal lattice vectors
     0.000000000  2.035576500  2.035576500    -0.245630660  0.245630660  0.245630660
     2.035576500  0.000000000  2.035576500     0.245630660 -0.245630660  0.245630660
     2.035576500  2.035576500  0.000000000     0.245630660  0.245630660 -0.245630660

  length of vectors
     2.878739894  2.878739894  2.878739894     0.425444784  0.425444784  0.425444784


 FORCES acting on ions
    electron-ion (+dipol)            ewald-force                    non-local-force                 convergence-correction
 -----------------------------------------------------------------------------------------------
   -.268E-13 -.217E-13 -.200E-13   -.258E-14 -.667E-14 -.309E-15   0.662E-23 0.199E-22 -.397E-22   -.670E-13 -.422E-13 -.385E-13
   0.820E-12 -.117E-11 -.573E-12   0.173E-14 0.807E-15 0.144E-14   0.165E-23 0.165E-23 0.165E-23   0.311E-13 0.699E-13 0.332E-13
 -----------------------------------------------------------------------------------------------
   0.793E-12 -.119E-11 -.593E-12   -.852E-15 -.586E-14 0.113E-14   0.827E-23 0.215E-22 -.381E-22   -.359E-13 0.277E-13 -.537E-14
 
 
 POSITION                                       TOTAL-FORCE (eV/Angst)
 -----------------------------------------------------------------------------------
      0.00000      0.00000      0.00000        -0.000000     -0.000000      0.000000
      2.03558      2.03558      2.03558         0.000000      0.000000     -0.000000
 -----------------------------------------------------------------------------------
    total drift:                                0.000000     -0.000000     -0.000000


--------------------------------------------------------------------------------------------------------



  FREE ENERGIE OF THE ION-ELECTRON SYSTEM (eV)
  ---------------------------------------------------
  free  energy   TOTEN  =       -16.67069128 eV

  energy  without entropy=      -16.66929441  energy(sigma->0) =      -16.66999284
 


--------------------------------------------------------------------------------------------------------


    POTLOK:  cpu time    0.1280: real time    0.1029


--------------------------------------------------------------------------------------------------------


     LOOP+:  cpu time  230.5779: real time   78.1175
    4ORBIT:  cpu time    0.0000: real time    0.0000

 total amount of memory used by VASP on root node   121519. kBytes
========================================================================

   base      :      30000. kBytes
   nonl-proj :      20473. kBytes
   fftplans  :       3916. kBytes
   grid      :       6939. kBytes
   one-center:         31. kBytes
   wavefun   :      60160. kBytes
 
  
  
 General timing and accounting informations for this job:
 ========================================================
  
                  Total CPU time used (sec):      231.446
                            User time (sec):      229.673
                          System time (sec):        1.773
                         Elapsed time (sec):       78.832
  
                   Maximum memory used (kb):   138858496.
                   Average memory used (kb):           0.
  
                          Minor page faults:        35905
                          Major page faults:            0
                 Voluntary context switches:            5
